V -t * -v 1.0a5 -a 0
A -t * -n 1 -p 0 -o 0x7fffffff -c 30 -a 1
A -t * -h 1 -m 1073741823 -s 0
n -t * -a 0 -s 0 -S UP -v circle -c black -i black
n -t * -a 1 -s 1 -S UP -v circle -c black -i black
n -t * -a 2 -s 2 -S UP -v circle -c black -i black
n -t * -a 3 -s 3 -S UP -v circle -c black -i black
l -t * -s 0 -d 1 -S UP -r 10000000 -D 0.01 -c black -o right-down
l -t * -s 1 -d 3 -S UP -r 10000000 -D 0.01 -c black -o right
l -t * -s 2 -d 1 -S UP -r 10000000 -D 0.01 -c black -o right-up
+ -t 0.000169788487334637 -s 0 -d 1 -p rtProtoLS -e 100 -c 0 -i 2 -a 0 -x {0.2 1.1 -1 ------- null}
- -t 0.000169788487334637 -s 0 -d 1 -p rtProtoLS -e 100 -c 0 -i 2 -a 0 -x {0.2 1.1 -1 ------- null}
h -t 0.000169788487334637 -s 0 -d 1 -p rtProtoLS -e 100 -c 0 -i 2 -a 0 -x {0.2 1.1 -1 ------- null}
+ -t 0.00710233021858257 -s 2 -d 1 -p rtProtoLS -e 100 -c 0 -i 4 -a 0 -x {2.2 1.1 -1 ------- null}
- -t 0.00710233021858257 -s 2 -d 1 -p rtProtoLS -e 100 -c 0 -i 4 -a 0 -x {2.2 1.1 -1 ------- null}
h -t 0.00710233021858257 -s 2 -d 1 -p rtProtoLS -e 100 -c 0 -i 4 -a 0 -x {2.2 1.1 -1 ------- null}
r -t 0.0102497884873346 -s 0 -d 1 -p rtProtoLS -e 100 -c 0 -i 2 -a 0 -x {0.2 1.1 -1 ------- null}
+ -t 0.0102497884873346 -s 1 -d 0 -p rtProtoLS -e 20 -c 0 -i 6 -a 0 -x {1.1 0.2 -1 ------- null}
- -t 0.0102497884873346 -s 1 -d 0 -p rtProtoLS -e 20 -c 0 -i 6 -a 0 -x {1.1 0.2 -1 ------- null}
h -t 0.0102497884873346 -s 1 -d 0 -p rtProtoLS -e 20 -c 0 -i 6 -a 0 -x {1.1 0.2 -1 ------- null}
+ -t 0.0102497884873346 -s 1 -d 2 -p rtProtoLS -e 100 -c 0 -i 7 -a 0 -x {1.1 2.2 -1 ------- null}
- -t 0.0102497884873346 -s 1 -d 2 -p rtProtoLS -e 100 -c 0 -i 7 -a 0 -x {1.1 2.2 -1 ------- null}
h -t 0.0102497884873346 -s 1 -d 2 -p rtProtoLS -e 100 -c 0 -i 7 -a 0 -x {1.1 2.2 -1 ------- null}
+ -t 0.0102497884873346 -s 1 -d 3 -p rtProtoLS -e 100 -c 0 -i 8 -a 0 -x {1.1 3.3 -1 ------- null}
- -t 0.0102497884873346 -s 1 -d 3 -p rtProtoLS -e 100 -c 0 -i 8 -a 0 -x {1.1 3.3 -1 ------- null}
h -t 0.0102497884873346 -s 1 -d 3 -p rtProtoLS -e 100 -c 0 -i 8 -a 0 -x {1.1 3.3 -1 ------- null}
r -t 0.0171823302185826 -s 2 -d 1 -p rtProtoLS -e 100 -c 0 -i 4 -a 0 -x {2.2 1.1 -1 ------- null}
+ -t 0.0171823302185826 -s 1 -d 2 -p rtProtoLS -e 20 -c 0 -i 11 -a 0 -x {1.1 2.2 -1 ------- null}
- -t 0.0171823302185826 -s 1 -d 2 -p rtProtoLS -e 20 -c 0 -i 11 -a 0 -x {1.1 2.2 -1 ------- null}
h -t 0.0171823302185826 -s 1 -d 2 -p rtProtoLS -e 20 -c 0 -i 11 -a 0 -x {1.1 2.2 -1 ------- null}
+ -t 0.0171823302185826 -s 1 -d 0 -p rtProtoLS -e 100 -c 0 -i 12 -a 0 -x {1.1 0.2 -1 ------- null}
- -t 0.0171823302185826 -s 1 -d 0 -p rtProtoLS -e 100 -c 0 -i 12 -a 0 -x {1.1 0.2 -1 ------- null}
h -t 0.0171823302185826 -s 1 -d 0 -p rtProtoLS -e 100 -c 0 -i 12 -a 0 -x {1.1 0.2 -1 ------- null}
+ -t 0.0171823302185826 -s 1 -d 3 -p rtProtoLS -e 100 -c 0 -i 13 -a 0 -x {1.1 3.3 -1 ------- null}
- -t 0.0171823302185826 -s 1 -d 3 -p rtProtoLS -e 100 -c 0 -i 13 -a 0 -x {1.1 3.3 -1 ------- null}
h -t 0.0171823302185826 -s 1 -d 3 -p rtProtoLS -e 100 -c 0 -i 13 -a 0 -x {1.1 3.3 -1 ------- null}
r -t 0.0202657884873346 -s 1 -d 0 -p rtProtoLS -e 20 -c 0 -i 6 -a 0 -x {1.1 0.2 -1 ------- null}
r -t 0.0203297884873346 -s 1 -d 2 -p rtProtoLS -e 100 -c 0 -i 7 -a 0 -x {1.1 2.2 -1 ------- null}
+ -t 0.0203297884873346 -s 2 -d 1 -p rtProtoLS -e 20 -c 0 -i 15 -a 0 -x {2.2 1.1 -1 ------- null}
- -t 0.0203297884873346 -s 2 -d 1 -p rtProtoLS -e 20 -c 0 -i 15 -a 0 -x {2.2 1.1 -1 ------- null}
h -t 0.0203297884873346 -s 2 -d 1 -p rtProtoLS -e 20 -c 0 -i 15 -a 0 -x {2.2 1.1 -1 ------- null}
r -t 0.0203297884873346 -s 1 -d 3 -p rtProtoLS -e 100 -c 0 -i 8 -a 0 -x {1.1 3.3 -1 ------- null}
+ -t 0.0203297884873346 -s 3 -d 1 -p rtProtoLS -e 20 -c 0 -i 16 -a 0 -x {3.3 1.1 -1 ------- null}
- -t 0.0203297884873346 -s 3 -d 1 -p rtProtoLS -e 20 -c 0 -i 16 -a 0 -x {3.3 1.1 -1 ------- null}
h -t 0.0203297884873346 -s 3 -d 1 -p rtProtoLS -e 20 -c 0 -i 16 -a 0 -x {3.3 1.1 -1 ------- null}
r -t 0.0271983302185826 -s 1 -d 2 -p rtProtoLS -e 20 -c 0 -i 11 -a 0 -x {1.1 2.2 -1 ------- null}
r -t 0.0272623302185826 -s 1 -d 0 -p rtProtoLS -e 100 -c 0 -i 12 -a 0 -x {1.1 0.2 -1 ------- null}
+ -t 0.0272623302185826 -s 0 -d 1 -p rtProtoLS -e 20 -c 0 -i 19 -a 0 -x {0.2 1.1 -1 ------- null}
- -t 0.0272623302185826 -s 0 -d 1 -p rtProtoLS -e 20 -c 0 -i 19 -a 0 -x {0.2 1.1 -1 ------- null}
h -t 0.0272623302185826 -s 0 -d 1 -p rtProtoLS -e 20 -c 0 -i 19 -a 0 -x {0.2 1.1 -1 ------- null}
r -t 0.0272623302185826 -s 1 -d 3 -p rtProtoLS -e 100 -c 0 -i 13 -a 0 -x {1.1 3.3 -1 ------- null}
+ -t 0.0272623302185826 -s 3 -d 1 -p rtProtoLS -e 20 -c 0 -i 20 -a 0 -x {3.3 1.1 -1 ------- null}
- -t 0.0272623302185826 -s 3 -d 1 -p rtProtoLS -e 20 -c 0 -i 20 -a 0 -x {3.3 1.1 -1 ------- null}
h -t 0.0272623302185826 -s 3 -d 1 -p rtProtoLS -e 20 -c 0 -i 20 -a 0 -x {3.3 1.1 -1 ------- null}
r -t 0.0303457884873346 -s 2 -d 1 -p rtProtoLS -e 20 -c 0 -i 15 -a 0 -x {2.2 1.1 -1 ------- null}
r -t 0.0303457884873346 -s 3 -d 1 -p rtProtoLS -e 20 -c 0 -i 16 -a 0 -x {3.3 1.1 -1 ------- null}
r -t 0.0372783302185826 -s 0 -d 1 -p rtProtoLS -e 20 -c 0 -i 19 -a 0 -x {0.2 1.1 -1 ------- null}
r -t 0.0372783302185826 -s 3 -d 1 -p rtProtoLS -e 20 -c 0 -i 20 -a 0 -x {3.3 1.1 -1 ------- null}
+ -t 0.04406133552271 -s 3 -d 1 -p rtProtoLS -e 100 -c 0 -i 25 -a 0 -x {3.3 1.1 -1 ------- null}
- -t 0.04406133552271 -s 3 -d 1 -p rtProtoLS -e 100 -c 0 -i 25 -a 0 -x {3.3 1.1 -1 ------- null}
h -t 0.04406133552271 -s 3 -d 1 -p rtProtoLS -e 100 -c 0 -i 25 -a 0 -x {3.3 1.1 -1 ------- null}
r -t 0.05414133552271 -s 3 -d 1 -p rtProtoLS -e 100 -c 0 -i 25 -a 0 -x {3.3 1.1 -1 ------- null}
+ -t 0.05414133552271 -s 1 -d 3 -p rtProtoLS -e 20 -c 0 -i 29 -a 0 -x {1.1 3.3 -1 ------- null}
- -t 0.05414133552271 -s 1 -d 3 -p rtProtoLS -e 20 -c 0 -i 29 -a 0 -x {1.1 3.3 -1 ------- null}
h -t 0.05414133552271 -s 1 -d 3 -p rtProtoLS -e 20 -c 0 -i 29 -a 0 -x {1.1 3.3 -1 ------- null}
+ -t 0.05414133552271 -s 1 -d 0 -p rtProtoLS -e 100 -c 0 -i 30 -a 0 -x {1.1 0.2 -1 ------- null}
- -t 0.05414133552271 -s 1 -d 0 -p rtProtoLS -e 100 -c 0 -i 30 -a 0 -x {1.1 0.2 -1 ------- null}
h -t 0.05414133552271 -s 1 -d 0 -p rtProtoLS -e 100 -c 0 -i 30 -a 0 -x {1.1 0.2 -1 ------- null}
+ -t 0.05414133552271 -s 1 -d 2 -p rtProtoLS -e 100 -c 0 -i 31 -a 0 -x {1.1 2.2 -1 ------- null}
- -t 0.05414133552271 -s 1 -d 2 -p rtProtoLS -e 100 -c 0 -i 31 -a 0 -x {1.1 2.2 -1 ------- null}
h -t 0.05414133552271 -s 1 -d 2 -p rtProtoLS -e 100 -c 0 -i 31 -a 0 -x {1.1 2.2 -1 ------- null}
r -t 0.06415733552271 -s 1 -d 3 -p rtProtoLS -e 20 -c 0 -i 29 -a 0 -x {1.1 3.3 -1 ------- null}
r -t 0.06422133552271 -s 1 -d 0 -p rtProtoLS -e 100 -c 0 -i 30 -a 0 -x {1.1 0.2 -1 ------- null}
+ -t 0.06422133552271 -s 0 -d 1 -p rtProtoLS -e 20 -c 0 -i 35 -a 0 -x {0.2 1.1 -1 ------- null}
- -t 0.06422133552271 -s 0 -d 1 -p rtProtoLS -e 20 -c 0 -i 35 -a 0 -x {0.2 1.1 -1 ------- null}
h -t 0.06422133552271 -s 0 -d 1 -p rtProtoLS -e 20 -c 0 -i 35 -a 0 -x {0.2 1.1 -1 ------- null}
r -t 0.06422133552271 -s 1 -d 2 -p rtProtoLS -e 100 -c 0 -i 31 -a 0 -x {1.1 2.2 -1 ------- null}
+ -t 0.06422133552271 -s 2 -d 1 -p rtProtoLS -e 20 -c 0 -i 36 -a 0 -x {2.2 1.1 -1 ------- null}
- -t 0.06422133552271 -s 2 -d 1 -p rtProtoLS -e 20 -c 0 -i 36 -a 0 -x {2.2 1.1 -1 ------- null}
h -t 0.06422133552271 -s 2 -d 1 -p rtProtoLS -e 20 -c 0 -i 36 -a 0 -x {2.2 1.1 -1 ------- null}
r -t 0.07423733552271 -s 0 -d 1 -p rtProtoLS -e 20 -c 0 -i 35 -a 0 -x {0.2 1.1 -1 ------- null}
r -t 0.07423733552271 -s 2 -d 1 -p rtProtoLS -e 20 -c 0 -i 36 -a 0 -x {2.2 1.1 -1 ------- null}
+ -t 0.277940357931862 -s 1 -d 0 -p rtProtoLS -e 100 -c 0 -i 94 -a 0 -x {1.1 0.2 -1 ------- null}
- -t 0.277940357931862 -s 1 -d 0 -p rtProtoLS -e 100 -c 0 -i 94 -a 0 -x {1.1 0.2 -1 ------- null}
h -t 0.277940357931862 -s 1 -d 0 -p rtProtoLS -e 100 -c 0 -i 94 -a 0 -x {1.1 0.2 -1 ------- null}
+ -t 0.277940357931862 -s 1 -d 2 -p rtProtoLS -e 100 -c 0 -i 95 -a 0 -x {1.1 2.2 -1 ------- null}
- -t 0.277940357931862 -s 1 -d 2 -p rtProtoLS -e 100 -c 0 -i 95 -a 0 -x {1.1 2.2 -1 ------- null}
h -t 0.277940357931862 -s 1 -d 2 -p rtProtoLS -e 100 -c 0 -i 95 -a 0 -x {1.1 2.2 -1 ------- null}
+ -t 0.277940357931862 -s 1 -d 3 -p rtProtoLS -e 100 -c 0 -i 96 -a 0 -x {1.1 3.3 -1 ------- null}
- -t 0.277940357931862 -s 1 -d 3 -p rtProtoLS -e 100 -c 0 -i 96 -a 0 -x {1.1 3.3 -1 ------- null}
h -t 0.277940357931862 -s 1 -d 3 -p rtProtoLS -e 100 -c 0 -i 96 -a 0 -x {1.1 3.3 -1 ------- null}
r -t 0.288020357931862 -s 1 -d 0 -p rtProtoLS -e 100 -c 0 -i 94 -a 0 -x {1.1 0.2 -1 ------- null}
+ -t 0.288020357931862 -s 0 -d 1 -p rtProtoLS -e 20 -c 0 -i 99 -a 0 -x {0.2 1.1 -1 ------- null}
- -t 0.288020357931862 -s 0 -d 1 -p rtProtoLS -e 20 -c 0 -i 99 -a 0 -x {0.2 1.1 -1 ------- null}
h -t 0.288020357931862 -s 0 -d 1 -p rtProtoLS -e 20 -c 0 -i 99 -a 0 -x {0.2 1.1 -1 ------- null}
r -t 0.288020357931862 -s 1 -d 2 -p rtProtoLS -e 100 -c 0 -i 95 -a 0 -x {1.1 2.2 -1 ------- null}
+ -t 0.288020357931862 -s 2 -d 1 -p rtProtoLS -e 20 -c 0 -i 100 -a 0 -x {2.2 1.1 -1 ------- null}
- -t 0.288020357931862 -s 2 -d 1 -p rtProtoLS -e 20 -c 0 -i 100 -a 0 -x {2.2 1.1 -1 ------- null}
h -t 0.288020357931862 -s 2 -d 1 -p rtProtoLS -e 20 -c 0 -i 100 -a 0 -x {2.2 1.1 -1 ------- null}
r -t 0.288020357931862 -s 1 -d 3 -p rtProtoLS -e 100 -c 0 -i 96 -a 0 -x {1.1 3.3 -1 ------- null}
+ -t 0.288020357931862 -s 3 -d 1 -p rtProtoLS -e 20 -c 0 -i 101 -a 0 -x {3.3 1.1 -1 ------- null}
- -t 0.288020357931862 -s 3 -d 1 -p rtProtoLS -e 20 -c 0 -i 101 -a 0 -x {3.3 1.1 -1 ------- null}
h -t 0.288020357931862 -s 3 -d 1 -p rtProtoLS -e 20 -c 0 -i 101 -a 0 -x {3.3 1.1 -1 ------- null}
+ -t 0.28875 -s 2 -d 1 -p cbr -e 210 -c 0 -i 102 -a 0 -x {2.0 3.1 77 ------- null}
- -t 0.28875 -s 2 -d 1 -p cbr -e 210 -c 0 -i 102 -a 0 -x {2.0 3.1 77 ------- null}
h -t 0.28875 -s 2 -d 1 -p cbr -e 210 -c 0 -i 102 -a 0 -x {2.0 3.1 -1 ------- null}
+ -t 0.2925 -s 2 -d 1 -p cbr -e 210 -c 0 -i 103 -a 0 -x {2.0 3.1 78 ------- null}
- -t 0.2925 -s 2 -d 1 -p cbr -e 210 -c 0 -i 103 -a 0 -x {2.0 3.1 78 ------- null}
h -t 0.2925 -s 2 -d 1 -p cbr -e 210 -c 0 -i 103 -a 0 -x {2.0 3.1 -1 ------- null}
+ -t 0.29625 -s 2 -d 1 -p cbr -e 210 -c 0 -i 104 -a 0 -x {2.0 3.1 79 ------- null}
- -t 0.29625 -s 2 -d 1 -p cbr -e 210 -c 0 -i 104 -a 0 -x {2.0 3.1 79 ------- null}
h -t 0.29625 -s 2 -d 1 -p cbr -e 210 -c 0 -i 104 -a 0 -x {2.0 3.1 -1 ------- null}
r -t 0.298036357931862 -s 0 -d 1 -p rtProtoLS -e 20 -c 0 -i 99 -a 0 -x {0.2 1.1 -1 ------- null}
r -t 0.298036357931862 -s 2 -d 1 -p rtProtoLS -e 20 -c 0 -i 100 -a 0 -x {2.2 1.1 -1 ------- null}
r -t 0.298036357931862 -s 3 -d 1 -p rtProtoLS -e 20 -c 0 -i 101 -a 0 -x {3.3 1.1 -1 ------- null}
r -t 0.298918 -s 2 -d 1 -p cbr -e 210 -c 0 -i 102 -a 0 -x {2.0 3.1 77 ------- null}
+ -t 0.298918 -s 1 -d 3 -p cbr -e 210 -c 0 -i 102 -a 0 -x {2.0 3.1 77 ------- null}
- -t 0.298918 -s 1 -d 3 -p cbr -e 210 -c 0 -i 102 -a 0 -x {2.0 3.1 77 ------- null}
h -t 0.298918 -s 1 -d 3 -p cbr -e 210 -c 0 -i 102 -a 0 -x {2.0 3.1 -1 ------- null}
+ -t 0.3 -s 2 -d 1 -p cbr -e 210 -c 0 -i 105 -a 0 -x {2.0 3.1 80 ------- null}
- -t 0.3 -s 2 -d 1 -p cbr -e 210 -c 0 -i 105 -a 0 -x {2.0 3.1 80 ------- null}
h -t 0.3 -s 2 -d 1 -p cbr -e 210 -c 0 -i 105 -a 0 -x {2.0 3.1 -1 ------- null}
r -t 0.302668 -s 2 -d 1 -p cbr -e 210 -c 0 -i 103 -a 0 -x {2.0 3.1 78 ------- null}
+ -t 0.302668 -s 1 -d 3 -p cbr -e 210 -c 0 -i 103 -a 0 -x {2.0 3.1 78 ------- null}
- -t 0.302668 -s 1 -d 3 -p cbr -e 210 -c 0 -i 103 -a 0 -x {2.0 3.1 78 ------- null}
h -t 0.302668 -s 1 -d 3 -p cbr -e 210 -c 0 -i 103 -a 0 -x {2.0 3.1 -1 ------- null}
+ -t 0.30375 -s 2 -d 1 -p cbr -e 210 -c 0 -i 106 -a 0 -x {2.0 3.1 81 ------- null}
- -t 0.30375 -s 2 -d 1 -p cbr -e 210 -c 0 -i 106 -a 0 -x {2.0 3.1 81 ------- null}
h -t 0.30375 -s 2 -d 1 -p cbr -e 210 -c 0 -i 106 -a 0 -x {2.0 3.1 -1 ------- null}
r -t 0.306418 -s 2 -d 1 -p cbr -e 210 -c 0 -i 104 -a 0 -x {2.0 3.1 79 ------- null}
+ -t 0.306418 -s 1 -d 3 -p cbr -e 210 -c 0 -i 104 -a 0 -x {2.0 3.1 79 ------- null}
- -t 0.306418 -s 1 -d 3 -p cbr -e 210 -c 0 -i 104 -a 0 -x {2.0 3.1 79 ------- null}
h -t 0.306418 -s 1 -d 3 -p cbr -e 210 -c 0 -i 104 -a 0 -x {2.0 3.1 -1 ------- null}
+ -t 0.3075 -s 2 -d 1 -p cbr -e 210 -c 0 -i 107 -a 0 -x {2.0 3.1 82 ------- null}
- -t 0.3075 -s 2 -d 1 -p cbr -e 210 -c 0 -i 107 -a 0 -x {2.0 3.1 82 ------- null}
h -t 0.3075 -s 2 -d 1 -p cbr -e 210 -c 0 -i 107 -a 0 -x {2.0 3.1 -1 ------- null}
r -t 0.309086 -s 1 -d 3 -p cbr -e 210 -c 0 -i 102 -a 0 -x {2.0 3.1 77 ------- null}
r -t 0.310168 -s 2 -d 1 -p cbr -e 210 -c 0 -i 105 -a 0 -x {2.0 3.1 80 ------- null}
+ -t 0.310168 -s 1 -d 3 -p cbr -e 210 -c 0 -i 105 -a 0 -x {2.0 3.1 80 ------- null}
- -t 0.310168 -s 1 -d 3 -p cbr -e 210 -c 0 -i 105 -a 0 -x {2.0 3.1 80 ------- null}
h -t 0.310168 -s 1 -d 3 -p cbr -e 210 -c 0 -i 105 -a 0 -x {2.0 3.1 -1 ------- null}
+ -t 0.31125 -s 2 -d 1 -p cbr -e 210 -c 0 -i 108 -a 0 -x {2.0 3.1 83 ------- null}
- -t 0.31125 -s 2 -d 1 -p cbr -e 210 -c 0 -i 108 -a 0 -x {2.0 3.1 83 ------- null}
h -t 0.31125 -s 2 -d 1 -p cbr -e 210 -c 0 -i 108 -a 0 -x {2.0 3.1 -1 ------- null}
r -t 0.312836 -s 1 -d 3 -p cbr -e 210 -c 0 -i 103 -a 0 -x {2.0 3.1 78 ------- null}
r -t 0.313918 -s 2 -d 1 -p cbr -e 210 -c 0 -i 106 -a 0 -x {2.0 3.1 81 ------- null}
+ -t 0.313918 -s 1 -d 3 -p cbr -e 210 -c 0 -i 106 -a 0 -x {2.0 3.1 81 ------- null}
- -t 0.313918 -s 1 -d 3 -p cbr -e 210 -c 0 -i 106 -a 0 -x {2.0 3.1 81 ------- null}
h -t 0.313918 -s 1 -d 3 -p cbr -e 210 -c 0 -i 106 -a 0 -x {2.0 3.1 -1 ------- null}
+ -t 0.315 -s 2 -d 1 -p cbr -e 210 -c 0 -i 109 -a 0 -x {2.0 3.1 84 ------- null}
- -t 0.315 -s 2 -d 1 -p cbr -e 210 -c 0 -i 109 -a 0 -x {2.0 3.1 84 ------- null}
h -t 0.315 -s 2 -d 1 -p cbr -e 210 -c 0 -i 109 -a 0 -x {2.0 3.1 -1 ------- null}
r -t 0.316586 -s 1 -d 3 -p cbr -e 210 -c 0 -i 104 -a 0 -x {2.0 3.1 79 ------- null}
r -t 0.317668 -s 2 -d 1 -p cbr -e 210 -c 0 -i 107 -a 0 -x {2.0 3.1 82 ------- null}
+ -t 0.317668 -s 1 -d 3 -p cbr -e 210 -c 0 -i 107 -a 0 -x {2.0 3.1 82 ------- null}
- -t 0.317668 -s 1 -d 3 -p cbr -e 210 -c 0 -i 107 -a 0 -x {2.0 3.1 82 ------- null}
h -t 0.317668 -s 1 -d 3 -p cbr -e 210 -c 0 -i 107 -a 0 -x {2.0 3.1 -1 ------- null}
+ -t 0.31875 -s 2 -d 1 -p cbr -e 210 -c 0 -i 110 -a 0 -x {2.0 3.1 85 ------- null}
- -t 0.31875 -s 2 -d 1 -p cbr -e 210 -c 0 -i 110 -a 0 -x {2.0 3.1 85 ------- null}
h -t 0.31875 -s 2 -d 1 -p cbr -e 210 -c 0 -i 110 -a 0 -x {2.0 3.1 -1 ------- null}
r -t 0.320336 -s 1 -d 3 -p cbr -e 210 -c 0 -i 105 -a 0 -x {2.0 3.1 80 ------- null}
r -t 0.321418 -s 2 -d 1 -p cbr -e 210 -c 0 -i 108 -a 0 -x {2.0 3.1 83 ------- null}
+ -t 0.321418 -s 1 -d 3 -p cbr -e 210 -c 0 -i 108 -a 0 -x {2.0 3.1 83 ------- null}
- -t 0.321418 -s 1 -d 3 -p cbr -e 210 -c 0 -i 108 -a 0 -x {2.0 3.1 83 ------- null}
h -t 0.321418 -s 1 -d 3 -p cbr -e 210 -c 0 -i 108 -a 0 -x {2.0 3.1 -1 ------- null}
+ -t 0.3225 -s 2 -d 1 -p cbr -e 210 -c 0 -i 111 -a 0 -x {2.0 3.1 86 ------- null}
- -t 0.3225 -s 2 -d 1 -p cbr -e 210 -c 0 -i 111 -a 0 -x {2.0 3.1 86 ------- null}
h -t 0.3225 -s 2 -d 1 -p cbr -e 210 -c 0 -i 111 -a 0 -x {2.0 3.1 -1 ------- null}
r -t 0.324086 -s 1 -d 3 -p cbr -e 210 -c 0 -i 106 -a 0 -x {2.0 3.1 81 ------- null}
r -t 0.325168 -s 2 -d 1 -p cbr -e 210 -c 0 -i 109 -a 0 -x {2.0 3.1 84 ------- null}
+ -t 0.325168 -s 1 -d 3 -p cbr -e 210 -c 0 -i 109 -a 0 -x {2.0 3.1 84 ------- null}
- -t 0.325168 -s 1 -d 3 -p cbr -e 210 -c 0 -i 109 -a 0 -x {2.0 3.1 84 ------- null}
h -t 0.325168 -s 1 -d 3 -p cbr -e 210 -c 0 -i 109 -a 0 -x {2.0 3.1 -1 ------- null}
+ -t 0.32625 -s 2 -d 1 -p cbr -e 210 -c 0 -i 112 -a 0 -x {2.0 3.1 87 ------- null}
- -t 0.32625 -s 2 -d 1 -p cbr -e 210 -c 0 -i 112 -a 0 -x {2.0 3.1 87 ------- null}
h -t 0.32625 -s 2 -d 1 -p cbr -e 210 -c 0 -i 112 -a 0 -x {2.0 3.1 -1 ------- null}
r -t 0.327836 -s 1 -d 3 -p cbr -e 210 -c 0 -i 107 -a 0 -x {2.0 3.1 82 ------- null}
r -t 0.328918 -s 2 -d 1 -p cbr -e 210 -c 0 -i 110 -a 0 -x {2.0 3.1 85 ------- null}
+ -t 0.328918 -s 1 -d 3 -p cbr -e 210 -c 0 -i 110 -a 0 -x {2.0 3.1 85 ------- null}
- -t 0.328918 -s 1 -d 3 -p cbr -e 210 -c 0 -i 110 -a 0 -x {2.0 3.1 85 ------- null}
h -t 0.328918 -s 1 -d 3 -p cbr -e 210 -c 0 -i 110 -a 0 -x {2.0 3.1 -1 ------- null}
+ -t 0.33 -s 2 -d 1 -p cbr -e 210 -c 0 -i 113 -a 0 -x {2.0 3.1 88 ------- null}
- -t 0.33 -s 2 -d 1 -p cbr -e 210 -c 0 -i 113 -a 0 -x {2.0 3.1 88 ------- null}
h -t 0.33 -s 2 -d 1 -p cbr -e 210 -c 0 -i 113 -a 0 -x {2.0 3.1 -1 ------- null}
r -t 0.331586 -s 1 -d 3 -p cbr -e 210 -c 0 -i 108 -a 0 -x {2.0 3.1 83 ------- null}
r -t 0.332668 -s 2 -d 1 -p cbr -e 210 -c 0 -i 111 -a 0 -x {2.0 3.1 86 ------- null}
+ -t 0.332668 -s 1 -d 3 -p cbr -e 210 -c 0 -i 111 -a 0 -x {2.0 3.1 86 ------- null}
- -t 0.332668 -s 1 -d 3 -p cbr -e 210 -c 0 -i 111 -a 0 -x {2.0 3.1 86 ------- null}
h -t 0.332668 -s 1 -d 3 -p cbr -e 210 -c 0 -i 111 -a 0 -x {2.0 3.1 -1 ------- null}
+ -t 0.33375 -s 2 -d 1 -p cbr -e 210 -c 0 -i 114 -a 0 -x {2.0 3.1 89 ------- null}
- -t 0.33375 -s 2 -d 1 -p cbr -e 210 -c 0 -i 114 -a 0 -x {2.0 3.1 89 ------- null}
h -t 0.33375 -s 2 -d 1 -p cbr -e 210 -c 0 -i 114 -a 0 -x {2.0 3.1 -1 ------- null}
r -t 0.335336 -s 1 -d 3 -p cbr -e 210 -c 0 -i 109 -a 0 -x {2.0 3.1 84 ------- null}
r -t 0.336418 -s 2 -d 1 -p cbr -e 210 -c 0 -i 112 -a 0 -x {2.0 3.1 87 ------- null}
+ -t 0.336418 -s 1 -d 3 -p cbr -e 210 -c 0 -i 112 -a 0 -x {2.0 3.1 87 ------- null}
- -t 0.336418 -s 1 -d 3 -p cbr -e 210 -c 0 -i 112 -a 0 -x {2.0 3.1 87 ------- null}
h -t 0.336418 -s 1 -d 3 -p cbr -e 210 -c 0 -i 112 -a 0 -x {2.0 3.1 -1 ------- null}
+ -t 0.3375 -s 2 -d 1 -p cbr -e 210 -c 0 -i 115 -a 0 -x {2.0 3.1 90 ------- null}
- -t 0.3375 -s 2 -d 1 -p cbr -e 210 -c 0 -i 115 -a 0 -x {2.0 3.1 90 ------- null}
h -t 0.3375 -s 2 -d 1 -p cbr -e 210 -c 0 -i 115 -a 0 -x {2.0 3.1 -1 ------- null}
r -t 0.339086 -s 1 -d 3 -p cbr -e 210 -c 0 -i 110 -a 0 -x {2.0 3.1 85 ------- null}
r -t 0.340168 -s 2 -d 1 -p cbr -e 210 -c 0 -i 113 -a 0 -x {2.0 3.1 88 ------- null}
+ -t 0.340168 -s 1 -d 3 -p cbr -e 210 -c 0 -i 113 -a 0 -x {2.0 3.1 88 ------- null}
- -t 0.340168 -s 1 -d 3 -p cbr -e 210 -c 0 -i 113 -a 0 -x {2.0 3.1 88 ------- null}
h -t 0.340168 -s 1 -d 3 -p cbr -e 210 -c 0 -i 113 -a 0 -x {2.0 3.1 -1 ------- null}
+ -t 0.34125 -s 2 -d 1 -p cbr -e 210 -c 0 -i 116 -a 0 -x {2.0 3.1 91 ------- null}
- -t 0.34125 -s 2 -d 1 -p cbr -e 210 -c 0 -i 116 -a 0 -x {2.0 3.1 91 ------- null}
h -t 0.34125 -s 2 -d 1 -p cbr -e 210 -c 0 -i 116 -a 0 -x {2.0 3.1 -1 ------- null}
r -t 0.342836 -s 1 -d 3 -p cbr -e 210 -c 0 -i 111 -a 0 -x {2.0 3.1 86 ------- null}
r -t 0.343918 -s 2 -d 1 -p cbr -e 210 -c 0 -i 114 -a 0 -x {2.0 3.1 89 ------- null}
+ -t 0.343918 -s 1 -d 3 -p cbr -e 210 -c 0 -i 114 -a 0 -x {2.0 3.1 89 ------- null}
- -t 0.343918 -s 1 -d 3 -p cbr -e 210 -c 0 -i 114 -a 0 -x {2.0 3.1 89 ------- null}
h -t 0.343918 -s 1 -d 3 -p cbr -e 210 -c 0 -i 114 -a 0 -x {2.0 3.1 -1 ------- null}
+ -t 0.345 -s 2 -d 1 -p cbr -e 210 -c 0 -i 117 -a 0 -x {2.0 3.1 92 ------- null}
- -t 0.345 -s 2 -d 1 -p cbr -e 210 -c 0 -i 117 -a 0 -x {2.0 3.1 92 ------- null}
h -t 0.345 -s 2 -d 1 -p cbr -e 210 -c 0 -i 117 -a 0 -x {2.0 3.1 -1 ------- null}
r -t 0.346586 -s 1 -d 3 -p cbr -e 210 -c 0 -i 112 -a 0 -x {2.0 3.1 87 ------- null}
r -t 0.347668 -s 2 -d 1 -p cbr -e 210 -c 0 -i 115 -a 0 -x {2.0 3.1 90 ------- null}
+ -t 0.347668 -s 1 -d 3 -p cbr -e 210 -c 0 -i 115 -a 0 -x {2.0 3.1 90 ------- null}
- -t 0.347668 -s 1 -d 3 -p cbr -e 210 -c 0 -i 115 -a 0 -x {2.0 3.1 90 ------- null}
h -t 0.347668 -s 1 -d 3 -p cbr -e 210 -c 0 -i 115 -a 0 -x {2.0 3.1 -1 ------- null}
+ -t 0.34875 -s 2 -d 1 -p cbr -e 210 -c 0 -i 118 -a 0 -x {2.0 3.1 93 ------- null}
- -t 0.34875 -s 2 -d 1 -p cbr -e 210 -c 0 -i 118 -a 0 -x {2.0 3.1 93 ------- null}
h -t 0.34875 -s 2 -d 1 -p cbr -e 210 -c 0 -i 118 -a 0 -x {2.0 3.1 -1 ------- null}
r -t 0.350336 -s 1 -d 3 -p cbr -e 210 -c 0 -i 113 -a 0 -x {2.0 3.1 88 ------- null}
r -t 0.351418 -s 2 -d 1 -p cbr -e 210 -c 0 -i 116 -a 0 -x {2.0 3.1 91 ------- null}
+ -t 0.351418 -s 1 -d 3 -p cbr -e 210 -c 0 -i 116 -a 0 -x {2.0 3.1 91 ------- null}
- -t 0.351418 -s 1 -d 3 -p cbr -e 210 -c 0 -i 116 -a 0 -x {2.0 3.1 91 ------- null}
h -t 0.351418 -s 1 -d 3 -p cbr -e 210 -c 0 -i 116 -a 0 -x {2.0 3.1 -1 ------- null}
+ -t 0.3525 -s 2 -d 1 -p cbr -e 210 -c 0 -i 119 -a 0 -x {2.0 3.1 94 ------- null}
- -t 0.3525 -s 2 -d 1 -p cbr -e 210 -c 0 -i 119 -a 0 -x {2.0 3.1 94 ------- null}
h -t 0.3525 -s 2 -d 1 -p cbr -e 210 -c 0 -i 119 -a 0 -x {2.0 3.1 -1 ------- null}
r -t 0.354086 -s 1 -d 3 -p cbr -e 210 -c 0 -i 114 -a 0 -x {2.0 3.1 89 ------- null}
r -t 0.355168 -s 2 -d 1 -p cbr -e 210 -c 0 -i 117 -a 0 -x {2.0 3.1 92 ------- null}
+ -t 0.355168 -s 1 -d 3 -p cbr -e 210 -c 0 -i 117 -a 0 -x {2.0 3.1 92 ------- null}
- -t 0.355168 -s 1 -d 3 -p cbr -e 210 -c 0 -i 117 -a 0 -x {2.0 3.1 92 ------- null}
h -t 0.355168 -s 1 -d 3 -p cbr -e 210 -c 0 -i 117 -a 0 -x {2.0 3.1 -1 ------- null}
+ -t 0.35625 -s 2 -d 1 -p cbr -e 210 -c 0 -i 120 -a 0 -x {2.0 3.1 95 ------- null}
- -t 0.35625 -s 2 -d 1 -p cbr -e 210 -c 0 -i 120 -a 0 -x {2.0 3.1 95 ------- null}
h -t 0.35625 -s 2 -d 1 -p cbr -e 210 -c 0 -i 120 -a 0 -x {2.0 3.1 -1 ------- null}
r -t 0.357836 -s 1 -d 3 -p cbr -e 210 -c 0 -i 115 -a 0 -x {2.0 3.1 90 ------- null}
r -t 0.358918 -s 2 -d 1 -p cbr -e 210 -c 0 -i 118 -a 0 -x {2.0 3.1 93 ------- null}
+ -t 0.358918 -s 1 -d 3 -p cbr -e 210 -c 0 -i 118 -a 0 -x {2.0 3.1 93 ------- null}
- -t 0.358918 -s 1 -d 3 -p cbr -e 210 -c 0 -i 118 -a 0 -x {2.0 3.1 93 ------- null}
h -t 0.358918 -s 1 -d 3 -p cbr -e 210 -c 0 -i 118 -a 0 -x {2.0 3.1 -1 ------- null}
+ -t 0.359999999999999 -s 2 -d 1 -p cbr -e 210 -c 0 -i 121 -a 0 -x {2.0 3.1 96 ------- null}
- -t 0.359999999999999 -s 2 -d 1 -p cbr -e 210 -c 0 -i 121 -a 0 -x {2.0 3.1 96 ------- null}
h -t 0.359999999999999 -s 2 -d 1 -p cbr -e 210 -c 0 -i 121 -a 0 -x {2.0 3.1 -1 ------- null}
r -t 0.361586 -s 1 -d 3 -p cbr -e 210 -c 0 -i 116 -a 0 -x {2.0 3.1 91 ------- null}
r -t 0.362668 -s 2 -d 1 -p cbr -e 210 -c 0 -i 119 -a 0 -x {2.0 3.1 94 ------- null}
+ -t 0.362668 -s 1 -d 3 -p cbr -e 210 -c 0 -i 119 -a 0 -x {2.0 3.1 94 ------- null}
- -t 0.362668 -s 1 -d 3 -p cbr -e 210 -c 0 -i 119 -a 0 -x {2.0 3.1 94 ------- null}
h -t 0.362668 -s 1 -d 3 -p cbr -e 210 -c 0 -i 119 -a 0 -x {2.0 3.1 -1 ------- null}
+ -t 0.363749999999999 -s 2 -d 1 -p cbr -e 210 -c 0 -i 122 -a 0 -x {2.0 3.1 97 ------- null}
- -t 0.363749999999999 -s 2 -d 1 -p cbr -e 210 -c 0 -i 122 -a 0 -x {2.0 3.1 97 ------- null}
h -t 0.363749999999999 -s 2 -d 1 -p cbr -e 210 -c 0 -i 122 -a 0 -x {2.0 3.1 -1 ------- null}
r -t 0.365336 -s 1 -d 3 -p cbr -e 210 -c 0 -i 117 -a 0 -x {2.0 3.1 92 ------- null}
r -t 0.366418 -s 2 -d 1 -p cbr -e 210 -c 0 -i 120 -a 0 -x {2.0 3.1 95 ------- null}
+ -t 0.366418 -s 1 -d 3 -p cbr -e 210 -c 0 -i 120 -a 0 -x {2.0 3.1 95 ------- null}
- -t 0.366418 -s 1 -d 3 -p cbr -e 210 -c 0 -i 120 -a 0 -x {2.0 3.1 95 ------- null}
h -t 0.366418 -s 1 -d 3 -p cbr -e 210 -c 0 -i 120 -a 0 -x {2.0 3.1 -1 ------- null}
+ -t 0.367499999999999 -s 2 -d 1 -p cbr -e 210 -c 0 -i 123 -a 0 -x {2.0 3.1 98 ------- null}
- -t 0.367499999999999 -s 2 -d 1 -p cbr -e 210 -c 0 -i 123 -a 0 -x {2.0 3.1 98 ------- null}
h -t 0.367499999999999 -s 2 -d 1 -p cbr -e 210 -c 0 -i 123 -a 0 -x {2.0 3.1 -1 ------- null}
r -t 0.369086 -s 1 -d 3 -p cbr -e 210 -c 0 -i 118 -a 0 -x {2.0 3.1 93 ------- null}
r -t 0.370167999999999 -s 2 -d 1 -p cbr -e 210 -c 0 -i 121 -a 0 -x {2.0 3.1 96 ------- null}
+ -t 0.370167999999999 -s 1 -d 3 -p cbr -e 210 -c 0 -i 121 -a 0 -x {2.0 3.1 96 ------- null}
- -t 0.370167999999999 -s 1 -d 3 -p cbr -e 210 -c 0 -i 121 -a 0 -x {2.0 3.1 96 ------- null}
h -t 0.370167999999999 -s 1 -d 3 -p cbr -e 210 -c 0 -i 121 -a 0 -x {2.0 3.1 -1 ------- null}
+ -t 0.371249999999999 -s 2 -d 1 -p cbr -e 210 -c 0 -i 124 -a 0 -x {2.0 3.1 99 ------- null}
- -t 0.371249999999999 -s 2 -d 1 -p cbr -e 210 -c 0 -i 124 -a 0 -x {2.0 3.1 99 ------- null}
h -t 0.371249999999999 -s 2 -d 1 -p cbr -e 210 -c 0 -i 124 -a 0 -x {2.0 3.1 -1 ------- null}
r -t 0.372836 -s 1 -d 3 -p cbr -e 210 -c 0 -i 119 -a 0 -x {2.0 3.1 94 ------- null}
r -t 0.373917999999999 -s 2 -d 1 -p cbr -e 210 -c 0 -i 122 -a 0 -x {2.0 3.1 97 ------- null}
+ -t 0.373917999999999 -s 1 -d 3 -p cbr -e 210 -c 0 -i 122 -a 0 -x {2.0 3.1 97 ------- null}
- -t 0.373917999999999 -s 1 -d 3 -p cbr -e 210 -c 0 -i 122 -a 0 -x {2.0 3.1 97 ------- null}
h -t 0.373917999999999 -s 1 -d 3 -p cbr -e 210 -c 0 -i 122 -a 0 -x {2.0 3.1 -1 ------- null}
+ -t 0.374999999999999 -s 2 -d 1 -p cbr -e 210 -c 0 -i 125 -a 0 -x {2.0 3.1 100 ------- null}
- -t 0.374999999999999 -s 2 -d 1 -p cbr -e 210 -c 0 -i 125 -a 0 -x {2.0 3.1 100 ------- null}
h -t 0.374999999999999 -s 2 -d 1 -p cbr -e 210 -c 0 -i 125 -a 0 -x {2.0 3.1 -1 ------- null}
r -t 0.376586 -s 1 -d 3 -p cbr -e 210 -c 0 -i 120 -a 0 -x {2.0 3.1 95 ------- null}
r -t 0.377667999999999 -s 2 -d 1 -p cbr -e 210 -c 0 -i 123 -a 0 -x {2.0 3.1 98 ------- null}
+ -t 0.377667999999999 -s 1 -d 3 -p cbr -e 210 -c 0 -i 123 -a 0 -x {2.0 3.1 98 ------- null}
- -t 0.377667999999999 -s 1 -d 3 -p cbr -e 210 -c 0 -i 123 -a 0 -x {2.0 3.1 98 ------- null}
h -t 0.377667999999999 -s 1 -d 3 -p cbr -e 210 -c 0 -i 123 -a 0 -x {2.0 3.1 -1 ------- null}
+ -t 0.378749999999999 -s 2 -d 1 -p cbr -e 210 -c 0 -i 126 -a 0 -x {2.0 3.1 101 ------- null}
- -t 0.378749999999999 -s 2 -d 1 -p cbr -e 210 -c 0 -i 126 -a 0 -x {2.0 3.1 101 ------- null}
h -t 0.378749999999999 -s 2 -d 1 -p cbr -e 210 -c 0 -i 126 -a 0 -x {2.0 3.1 -1 ------- null}
r -t 0.380336 -s 1 -d 3 -p cbr -e 210 -c 0 -i 121 -a 0 -x {2.0 3.1 96 ------- null}
r -t 0.381417999999999 -s 2 -d 1 -p cbr -e 210 -c 0 -i 124 -a 0 -x {2.0 3.1 99 ------- null}
+ -t 0.381417999999999 -s 1 -d 3 -p cbr -e 210 -c 0 -i 124 -a 0 -x {2.0 3.1 99 ------- null}
- -t 0.381417999999999 -s 1 -d 3 -p cbr -e 210 -c 0 -i 124 -a 0 -x {2.0 3.1 99 ------- null}
h -t 0.381417999999999 -s 1 -d 3 -p cbr -e 210 -c 0 -i 124 -a 0 -x {2.0 3.1 -1 ------- null}
+ -t 0.382499999999999 -s 2 -d 1 -p cbr -e 210 -c 0 -i 127 -a 0 -x {2.0 3.1 102 ------- null}
- -t 0.382499999999999 -s 2 -d 1 -p cbr -e 210 -c 0 -i 127 -a 0 -x {2.0 3.1 102 ------- null}
h -t 0.382499999999999 -s 2 -d 1 -p cbr -e 210 -c 0 -i 127 -a 0 -x {2.0 3.1 -1 ------- null}
r -t 0.384085999999999 -s 1 -d 3 -p cbr -e 210 -c 0 -i 122 -a 0 -x {2.0 3.1 97 ------- null}
r -t 0.385167999999999 -s 2 -d 1 -p cbr -e 210 -c 0 -i 125 -a 0 -x {2.0 3.1 100 ------- null}
+ -t 0.385167999999999 -s 1 -d 3 -p cbr -e 210 -c 0 -i 125 -a 0 -x {2.0 3.1 100 ------- null}
- -t 0.385167999999999 -s 1 -d 3 -p cbr -e 210 -c 0 -i 125 -a 0 -x {2.0 3.1 100 ------- null}
h -t 0.385167999999999 -s 1 -d 3 -p cbr -e 210 -c 0 -i 125 -a 0 -x {2.0 3.1 -1 ------- null}
+ -t 0.386249999999999 -s 2 -d 1 -p cbr -e 210 -c 0 -i 128 -a 0 -x {2.0 3.1 103 ------- null}
- -t 0.386249999999999 -s 2 -d 1 -p cbr -e 210 -c 0 -i 128 -a 0 -x {2.0 3.1 103 ------- null}
h -t 0.386249999999999 -s 2 -d 1 -p cbr -e 210 -c 0 -i 128 -a 0 -x {2.0 3.1 -1 ------- null}
r -t 0.387835999999999 -s 1 -d 3 -p cbr -e 210 -c 0 -i 123 -a 0 -x {2.0 3.1 98 ------- null}
r -t 0.388917999999999 -s 2 -d 1 -p cbr -e 210 -c 0 -i 126 -a 0 -x {2.0 3.1 101 ------- null}
+ -t 0.388917999999999 -s 1 -d 3 -p cbr -e 210 -c 0 -i 126 -a 0 -x {2.0 3.1 101 ------- null}
- -t 0.388917999999999 -s 1 -d 3 -p cbr -e 210 -c 0 -i 126 -a 0 -x {2.0 3.1 101 ------- null}
h -t 0.388917999999999 -s 1 -d 3 -p cbr -e 210 -c 0 -i 126 -a 0 -x {2.0 3.1 -1 ------- null}
+ -t 0.389999999999999 -s 2 -d 1 -p cbr -e 210 -c 0 -i 129 -a 0 -x {2.0 3.1 104 ------- null}
- -t 0.389999999999999 -s 2 -d 1 -p cbr -e 210 -c 0 -i 129 -a 0 -x {2.0 3.1 104 ------- null}
h -t 0.389999999999999 -s 2 -d 1 -p cbr -e 210 -c 0 -i 129 -a 0 -x {2.0 3.1 -1 ------- null}
r -t 0.391585999999999 -s 1 -d 3 -p cbr -e 210 -c 0 -i 124 -a 0 -x {2.0 3.1 99 ------- null}
r -t 0.392667999999999 -s 2 -d 1 -p cbr -e 210 -c 0 -i 127 -a 0 -x {2.0 3.1 102 ------- null}
+ -t 0.392667999999999 -s 1 -d 3 -p cbr -e 210 -c 0 -i 127 -a 0 -x {2.0 3.1 102 ------- null}
- -t 0.392667999999999 -s 1 -d 3 -p cbr -e 210 -c 0 -i 127 -a 0 -x {2.0 3.1 102 ------- null}
h -t 0.392667999999999 -s 1 -d 3 -p cbr -e 210 -c 0 -i 127 -a 0 -x {2.0 3.1 -1 ------- null}
+ -t 0.393749999999999 -s 2 -d 1 -p cbr -e 210 -c 0 -i 130 -a 0 -x {2.0 3.1 105 ------- null}
- -t 0.393749999999999 -s 2 -d 1 -p cbr -e 210 -c 0 -i 130 -a 0 -x {2.0 3.1 105 ------- null}
h -t 0.393749999999999 -s 2 -d 1 -p cbr -e 210 -c 0 -i 130 -a 0 -x {2.0 3.1 -1 ------- null}
r -t 0.395335999999999 -s 1 -d 3 -p cbr -e 210 -c 0 -i 125 -a 0 -x {2.0 3.1 100 ------- null}
r -t 0.396417999999999 -s 2 -d 1 -p cbr -e 210 -c 0 -i 128 -a 0 -x {2.0 3.1 103 ------- null}
+ -t 0.396417999999999 -s 1 -d 3 -p cbr -e 210 -c 0 -i 128 -a 0 -x {2.0 3.1 103 ------- null}
- -t 0.396417999999999 -s 1 -d 3 -p cbr -e 210 -c 0 -i 128 -a 0 -x {2.0 3.1 103 ------- null}
h -t 0.396417999999999 -s 1 -d 3 -p cbr -e 210 -c 0 -i 128 -a 0 -x {2.0 3.1 -1 ------- null}
+ -t 0.397499999999999 -s 2 -d 1 -p cbr -e 210 -c 0 -i 131 -a 0 -x {2.0 3.1 106 ------- null}
- -t 0.397499999999999 -s 2 -d 1 -p cbr -e 210 -c 0 -i 131 -a 0 -x {2.0 3.1 106 ------- null}
h -t 0.397499999999999 -s 2 -d 1 -p cbr -e 210 -c 0 -i 131 -a 0 -x {2.0 3.1 -1 ------- null}
r -t 0.399085999999999 -s 1 -d 3 -p cbr -e 210 -c 0 -i 126 -a 0 -x {2.0 3.1 101 ------- null}
r -t 0.400167999999999 -s 2 -d 1 -p cbr -e 210 -c 0 -i 129 -a 0 -x {2.0 3.1 104 ------- null}
+ -t 0.400167999999999 -s 1 -d 3 -p cbr -e 210 -c 0 -i 129 -a 0 -x {2.0 3.1 104 ------- null}
- -t 0.400167999999999 -s 1 -d 3 -p cbr -e 210 -c 0 -i 129 -a 0 -x {2.0 3.1 104 ------- null}
h -t 0.400167999999999 -s 1 -d 3 -p cbr -e 210 -c 0 -i 129 -a 0 -x {2.0 3.1 -1 ------- null}
+ -t 0.401249999999999 -s 2 -d 1 -p cbr -e 210 -c 0 -i 132 -a 0 -x {2.0 3.1 107 ------- null}
- -t 0.401249999999999 -s 2 -d 1 -p cbr -e 210 -c 0 -i 132 -a 0 -x {2.0 3.1 107 ------- null}
h -t 0.401249999999999 -s 2 -d 1 -p cbr -e 210 -c 0 -i 132 -a 0 -x {2.0 3.1 -1 ------- null}
r -t 0.402835999999999 -s 1 -d 3 -p cbr -e 210 -c 0 -i 127 -a 0 -x {2.0 3.1 102 ------- null}
r -t 0.403917999999999 -s 2 -d 1 -p cbr -e 210 -c 0 -i 130 -a 0 -x {2.0 3.1 105 ------- null}