+ 0.00017 0 1 rtProtoDV 4 ------- 0 0.2 1.1 -1 2
- 0.00017 0 1 rtProtoDV 4 ------- 0 0.2 1.1 -1 2
+ 0.007102 2 1 rtProtoDV 4 ------- 0 2.2 1.1 -1 4
- 0.007102 2 1 rtProtoDV 4 ------- 0 2.2 1.1 -1 4
r 0.010173 0 1 rtProtoDV 4 ------- 0 0.2 1.1 -1 2
r 0.017106 2 1 rtProtoDV 4 ------- 0 2.2 1.1 -1 4
+ 0.044061 3 1 rtProtoDV 4 ------- 0 3.3 1.1 -1 15
- 0.044061 3 1 rtProtoDV 4 ------- 0 3.3 1.1 -1 15
r 0.054065 3 1 rtProtoDV 4 ------- 0 3.3 1.1 -1 15
+ 0.27794 1 0 rtProtoDV 4 ------- 0 1.1 0.2 -1 79
- 0.27794 1 0 rtProtoDV 4 ------- 0 1.1 0.2 -1 79
+ 0.27794 1 2 rtProtoDV 4 ------- 0 1.1 2.2 -1 80
- 0.27794 1 2 rtProtoDV 4 ------- 0 1.1 2.2 -1 80
+ 0.27794 1 3 rtProtoDV 4 ------- 0 1.1 3.3 -1 81
- 0.27794 1 3 rtProtoDV 4 ------- 0 1.1 3.3 -1 81
r 0.287944 1 0 rtProtoDV 4 ------- 0 1.1 0.2 -1 79
+ 0.287944 0 1 rtProtoDV 4 ------- 0 0.2 1.1 -1 84
- 0.287944 0 1 rtProtoDV 4 ------- 0 0.2 1.1 -1 84
r 0.287944 1 2 rtProtoDV 4 ------- 0 1.1 2.2 -1 80
+ 0.287944 2 1 rtProtoDV 4 ------- 0 2.2 1.1 -1 85
- 0.287944 2 1 rtProtoDV 4 ------- 0 2.2 1.1 -1 85
r 0.287944 1 3 rtProtoDV 4 ------- 0 1.1 3.3 -1 81
+ 0.287944 3 1 rtProtoDV 4 ------- 0 3.3 1.1 -1 86
- 0.287944 3 1 rtProtoDV 4 ------- 0 3.3 1.1 -1 86
+ 0.28875 2 1 cbr 210 ------- 0 2.0 3.1 77 87
- 0.28875 2 1 cbr 210 ------- 0 2.0 3.1 77 87
+ 0.2925 2 1 cbr 210 ------- 0 2.0 3.1 78 88
- 0.2925 2 1 cbr 210 ------- 0 2.0 3.1 78 88
+ 0.29625 2 1 cbr 210 ------- 0 2.0 3.1 79 89
- 0.29625 2 1 cbr 210 ------- 0 2.0 3.1 79 89
r 0.297947 0 1 rtProtoDV 4 ------- 0 0.2 1.1 -1 84
r 0.297947 2 1 rtProtoDV 4 ------- 0 2.2 1.1 -1 85
r 0.297947 3 1 rtProtoDV 4 ------- 0 3.3 1.1 -1 86
r 0.298918 2 1 cbr 210 ------- 0 2.0 3.1 77 87
+ 0.298918 1 3 cbr 210 ------- 0 2.0 3.1 77 87
- 0.298918 1 3 cbr 210 ------- 0 2.0 3.1 77 87
+ 0.3 2 1 cbr 210 ------- 0 2.0 3.1 80 90
- 0.3 2 1 cbr 210 ------- 0 2.0 3.1 80 90
r 0.302668 2 1 cbr 210 ------- 0 2.0 3.1 78 88
+ 0.302668 1 3 cbr 210 ------- 0 2.0 3.1 78 88
- 0.302668 1 3 cbr 210 ------- 0 2.0 3.1 78 88
+ 0.30375 2 1 cbr 210 ------- 0 2.0 3.1 81 91
- 0.30375 2 1 cbr 210 ------- 0 2.0 3.1 81 91
r 0.306418 2 1 cbr 210 ------- 0 2.0 3.1 79 89
+ 0.306418 1 3 cbr 210 ------- 0 2.0 3.1 79 89
- 0.306418 1 3 cbr 210 ------- 0 2.0 3.1 79 89
+ 0.3075 2 1 cbr 210 ------- 0 2.0 3.1 82 92
- 0.3075 2 1 cbr 210 ------- 0 2.0 3.1 82 92
r 0.309086 1 3 cbr 210 ------- 0 2.0 3.1 77 87
r 0.310168 2 1 cbr 210 ------- 0 2.0 3.1 80 90
+ 0.310168 1 3 cbr 210 ------- 0 2.0 3.1 80 90
- 0.310168 1 3 cbr 210 ------- 0 2.0 3.1 80 90
+ 0.31125 2 1 cbr 210 ------- 0 2.0 3.1 83 93
- 0.31125 2 1 cbr 210 ------- 0 2.0 3.1 83 93
r 0.312836 1 3 cbr 210 ------- 0 2.0 3.1 78 88
r 0.313918 2 1 cbr 210 ------- 0 2.0 3.1 81 91
+ 0.313918 1 3 cbr 210 ------- 0 2.0 3.1 81 91
- 0.313918 1 3 cbr 210 ------- 0 2.0 3.1 81 91
+ 0.315 2 1 cbr 210 ------- 0 2.0 3.1 84 94
- 0.315 2 1 cbr 210 ------- 0 2.0 3.1 84 94
r 0.316586 1 3 cbr 210 ------- 0 2.0 3.1 79 89
r 0.317668 2 1 cbr 210 ------- 0 2.0 3.1 82 92
+ 0.317668 1 3 cbr 210 ------- 0 2.0 3.1 82 92
- 0.317668 1 3 cbr 210 ------- 0 2.0 3.1 82 92
+ 0.31875 2 1 cbr 210 ------- 0 2.0 3.1 85 95
- 0.31875 2 1 cbr 210 ------- 0 2.0 3.1 85 95
r 0.320336 1 3 cbr 210 ------- 0 2.0 3.1 80 90
r 0.321418 2 1 cbr 210 ------- 0 2.0 3.1 83 93
+ 0.321418 1 3 cbr 210 ------- 0 2.0 3.1 83 93
- 0.321418 1 3 cbr 210 ------- 0 2.0 3.1 83 93
+ 0.3225 2 1 cbr 210 ------- 0 2.0 3.1 86 96
- 0.3225 2 1 cbr 210 ------- 0 2.0 3.1 86 96
r 0.324086 1 3 cbr 210 ------- 0 2.0 3.1 81 91
r 0.325168 2 1 cbr 210 ------- 0 2.0 3.1 84 94
+ 0.325168 1 3 cbr 210 ------- 0 2.0 3.1 84 94
- 0.325168 1 3 cbr 210 ------- 0 2.0 3.1 84 94
+ 0.32625 2 1 cbr 210 ------- 0 2.0 3.1 87 97
- 0.32625 2 1 cbr 210 ------- 0 2.0 3.1 87 97
r 0.327836 1 3 cbr 210 ------- 0 2.0 3.1 82 92
r 0.328918 2 1 cbr 210 ------- 0 2.0 3.1 85 95
+ 0.328918 1 3 cbr 210 ------- 0 2.0 3.1 85 95
- 0.328918 1 3 cbr 210 ------- 0 2.0 3.1 85 95
+ 0.33 2 1 cbr 210 ------- 0 2.0 3.1 88 98
- 0.33 2 1 cbr 210 ------- 0 2.0 3.1 88 98
r 0.331586 1 3 cbr 210 ------- 0 2.0 3.1 83 93
r 0.332668 2 1 cbr 210 ------- 0 2.0 3.1 86 96
+ 0.332668 1 3 cbr 210 ------- 0 2.0 3.1 86 96
- 0.332668 1 3 cbr 210 ------- 0 2.0 3.1 86 96
+ 0.33375 2 1 cbr 210 ------- 0 2.0 3.1 89 99
- 0.33375 2 1 cbr 210 ------- 0 2.0 3.1 89 99
r 0.335336 1 3 cbr 210 ------- 0 2.0 3.1 84 94
r 0.336418 2 1 cbr 210 ------- 0 2.0 3.1 87 97
+ 0.336418 1 3 cbr 210 ------- 0 2.0 3.1 87 97
- 0.336418 1 3 cbr 210 ------- 0 2.0 3.1 87 97
+ 0.3375 2 1 cbr 210 ------- 0 2.0 3.1 90 100
- 0.3375 2 1 cbr 210 ------- 0 2.0 3.1 90 100
r 0.339086 1 3 cbr 210 ------- 0 2.0 3.1 85 95
r 0.340168 2 1 cbr 210 ------- 0 2.0 3.1 88 98
+ 0.340168 1 3 cbr 210 ------- 0 2.0 3.1 88 98
- 0.340168 1 3 cbr 210 ------- 0 2.0 3.1 88 98
+ 0.34125 2 1 cbr 210 ------- 0 2.0 3.1 91 101
- 0.34125 2 1 cbr 210 ------- 0 2.0 3.1 91 101
r 0.342836 1 3 cbr 210 ------- 0 2.0 3.1 86 96
r 0.343918 2 1 cbr 210 ------- 0 2.0 3.1 89 99
+ 0.343918 1 3 cbr 210 ------- 0 2.0 3.1 89 99
- 0.343918 1 3 cbr 210 ------- 0 2.0 3.1 89 99
+ 0.345 2 1 cbr 210 ------- 0 2.0 3.1 92 102
- 0.345 2 1 cbr 210 ------- 0 2.0 3.1 92 102
r 0.346586 1 3 cbr 210 ------- 0 2.0 3.1 87 97
r 0.347668 2 1 cbr 210 ------- 0 2.0 3.1 90 100
+ 0.347668 1 3 cbr 210 ------- 0 2.0 3.1 90 100
- 0.347668 1 3 cbr 210 ------- 0 2.0 3.1 90 100
+ 0.34875 2 1 cbr 210 ------- 0 2.0 3.1 93 103
- 0.34875 2 1 cbr 210 ------- 0 2.0 3.1 93 103
r 0.350336 1 3 cbr 210 ------- 0 2.0 3.1 88 98
r 0.351418 2 1 cbr 210 ------- 0 2.0 3.1 91 101
+ 0.351418 1 3 cbr 210 ------- 0 2.0 3.1 91 101
- 0.351418 1 3 cbr 210 ------- 0 2.0 3.1 91 101
+ 0.3525 2 1 cbr 210 ------- 0 2.0 3.1 94 104
- 0.3525 2 1 cbr 210 ------- 0 2.0 3.1 94 104
r 0.354086 1 3 cbr 210 ------- 0 2.0 3.1 89 99
r 0.355168 2 1 cbr 210 ------- 0 2.0 3.1 92 102
+ 0.355168 1 3 cbr 210 ------- 0 2.0 3.1 92 102
- 0.355168 1 3 cbr 210 ------- 0 2.0 3.1 92 102
+ 0.35625 2 1 cbr 210 ------- 0 2.0 3.1 95 105
- 0.35625 2 1 cbr 210 ------- 0 2.0 3.1 95 105
r 0.357836 1 3 cbr 210 ------- 0 2.0 3.1 90 100
r 0.358918 2 1 cbr 210 ------- 0 2.0 3.1 93 103
+ 0.358918 1 3 cbr 210 ------- 0 2.0 3.1 93 103
- 0.358918 1 3 cbr 210 ------- 0 2.0 3.1 93 103
+ 0.36 2 1 cbr 210 ------- 0 2.0 3.1 96 106
- 0.36 2 1 cbr 210 ------- 0 2.0 3.1 96 106
r 0.361586 1 3 cbr 210 ------- 0 2.0 3.1 91 101
r 0.362668 2 1 cbr 210 ------- 0 2.0 3.1 94 104
+ 0.362668 1 3 cbr 210 ------- 0 2.0 3.1 94 104
- 0.362668 1 3 cbr 210 ------- 0 2.0 3.1 94 104
+ 0.36375 2 1 cbr 210 ------- 0 2.0 3.1 97 107
- 0.36375 2 1 cbr 210 ------- 0 2.0 3.1 97 107
r 0.365336 1 3 cbr 210 ------- 0 2.0 3.1 92 102
r 0.366418 2 1 cbr 210 ------- 0 2.0 3.1 95 105
+ 0.366418 1 3 cbr 210 ------- 0 2.0 3.1 95 105
- 0.366418 1 3 cbr 210 ------- 0 2.0 3.1 95 105
+ 0.3675 2 1 cbr 210 ------- 0 2.0 3.1 98 108
- 0.3675 2 1 cbr 210 ------- 0 2.0 3.1 98 108
r 0.369086 1 3 cbr 210 ------- 0 2.0 3.1 93 103
r 0.370168 2 1 cbr 210 ------- 0 2.0 3.1 96 106
+ 0.370168 1 3 cbr 210 ------- 0 2.0 3.1 96 106
- 0.370168 1 3 cbr 210 ------- 0 2.0 3.1 96 106
+ 0.37125 2 1 cbr 210 ------- 0 2.0 3.1 99 109
- 0.37125 2 1 cbr 210 ------- 0 2.0 3.1 99 109
r 0.372836 1 3 cbr 210 ------- 0 2.0 3.1 94 104
r 0.373918 2 1 cbr 210 ------- 0 2.0 3.1 97 107
+ 0.373918 1 3 cbr 210 ------- 0 2.0 3.1 97 107
- 0.373918 1 3 cbr 210 ------- 0 2.0 3.1 97 107
+ 0.375 2 1 cbr 210 ------- 0 2.0 3.1 100 110
- 0.375 2 1 cbr 210 ------- 0 2.0 3.1 100 110
r 0.376586 1 3 cbr 210 ------- 0 2.0 3.1 95 105
r 0.377668 2 1 cbr 210 ------- 0 2.0 3.1 98 108
+ 0.377668 1 3 cbr 210 ------- 0 2.0 3.1 98 108
- 0.377668 1 3 cbr 210 ------- 0 2.0 3.1 98 108
+ 0.37875 2 1 cbr 210 ------- 0 2.0 3.1 101 111
- 0.37875 2 1 cbr 210 ------- 0 2.0 3.1 101 111
r 0.380336 1 3 cbr 210 ------- 0 2.0 3.1 96 106
r 0.381418 2 1 cbr 210 ------- 0 2.0 3.1 99 109
+ 0.381418 1 3 cbr 210 ------- 0 2.0 3.1 99 109
- 0.381418 1 3 cbr 210 ------- 0 2.0 3.1 99 109
+ 0.3825 2 1 cbr 210 ------- 0 2.0 3.1 102 112
- 0.3825 2 1 cbr 210 ------- 0 2.0 3.1 102 112
r 0.384086 1 3 cbr 210 ------- 0 2.0 3.1 97 107
r 0.385168 2 1 cbr 210 ------- 0 2.0 3.1 100 110
+ 0.385168 1 3 cbr 210 ------- 0 2.0 3.1 100 110
- 0.385168 1 3 cbr 210 ------- 0 2.0 3.1 100 110
+ 0.38625 2 1 cbr 210 ------- 0 2.0 3.1 103 113
- 0.38625 2 1 cbr 210 ------- 0 2.0 3.1 103 113
r 0.387836 1 3 cbr 210 ------- 0 2.0 3.1 98 108
r 0.388918 2 1 cbr 210 ------- 0 2.0 3.1 101 111
+ 0.388918 1 3 cbr 210 ------- 0 2.0 3.1 101 111
- 0.388918 1 3 cbr 210 ------- 0 2.0 3.1 101 111
+ 0.39 2 1 cbr 210 ------- 0 2.0 3.1 104 114
- 0.39 2 1 cbr 210 ------- 0 2.0 3.1 104 114
r 0.391586 1 3 cbr 210 ------- 0 2.0 3.1 99 109
r 0.392668 2 1 cbr 210 ------- 0 2.0 3.1 102 112
+ 0.392668 1 3 cbr 210 ------- 0 2.0 3.1 102 112
- 0.392668 1 3 cbr 210 ------- 0 2.0 3.1 102 112
+ 0.39375 2 1 cbr 210 ------- 0 2.0 3.1 105 115
- 0.39375 2 1 cbr 210 ------- 0 2.0 3.1 105 115
r 0.395336 1 3 cbr 210 ------- 0 2.0 3.1 100 110
r 0.396418 2 1 cbr 210 ------- 0 2.0 3.1 103 113
+ 0.396418 1 3 cbr 210 ------- 0 2.0 3.1 103 113
- 0.396418 1 3 cbr 210 ------- 0 2.0 3.1 103 113
+ 0.3975 2 1 cbr 210 ------- 0 2.0 3.1 106 116
- 0.3975 2 1 cbr 210 ------- 0 2.0 3.1 106 116
r 0.399086 1 3 cbr 210 ------- 0 2.0 3.1 101 111
r 0.400168 2 1 cbr 210 ------- 0 2.0 3.1 104 114
+ 0.400168 1 3 cbr 210 ------- 0 2.0 3.1 104 114
- 0.400168 1 3 cbr 210 ------- 0 2.0 3.1 104 114
+ 0.40125 2 1 cbr 210 ------- 0 2.0 3.1 107 117
- 0.40125 2 1 cbr 210 ------- 0 2.0 3.1 107 117
r 0.402836 1 3 cbr 210 ------- 0 2.0 3.1 102 112
r 0.403918 2 1 cbr 210 ------- 0 2.0 3.1 105 115
+ 0.403918 1 3 cbr 210 ------- 0 2.0 3.1 105 115
- 0.403918 1 3 cbr 210 ------- 0 2.0 3.1 105 115
+ 0.405 2 1 cbr 210 ------- 0 2.0 3.1 108 118
- 0.405 2 1 cbr 210 ------- 0 2.0 3.1 108 118
r 0.406586 1 3 cbr 210 ------- 0 2.0 3.1 103 113
r 0.407668 2 1 cbr 210 ------- 0 2.0 3.1 106 116
+ 0.407668 1 3 cbr 210 ------- 0 2.0 3.1 106 116
- 0.407668 1 3 cbr 210 ------- 0 2.0 3.1 106 116
+ 0.40875 2 1 cbr 210 ------- 0 2.0 3.1 109 119
- 0.40875 2 1 cbr 210 ------- 0 2.0 3.1 109 119
r 0.410336 1 3 cbr 210 ------- 0 2.0 3.1 104 114
r 0.411418 2 1 cbr 210 ------- 0 2.0 3.1 107 117
+ 0.411418 1 3 cbr 210 ------- 0 2.0 3.1 107 117
- 0.411418 1 3 cbr 210 ------- 0 2.0 3.1 107 117
+ 0.4125 2 1 cbr 210 ------- 0 2.0 3.1 110 120
- 0.4125 2 1 cbr 210 ------- 0 2.0 3.1 110 120
r 0.414086 1 3 cbr 210 ------- 0 2.0 3.1 105 115
r 0.415168 2 1 cbr 210 ------- 0 2.0 3.1 108 118
+ 0.415168 1 3 cbr 210 ------- 0 2.0 3.1 108 118
- 0.415168 1 3 cbr 210 ------- 0 2.0 3.1 108 118
+ 0.41625 2 1 cbr 210 ------- 0 2.0 3.1 111 121
- 0.41625 2 1 cbr 210 ------- 0 2.0 3.1 111 121
r 0.417836 1 3 cbr 210 ------- 0 2.0 3.1 106 116
r 0.418918 2 1 cbr 210 ------- 0 2.0 3.1 109 119
+ 0.418918 1 3 cbr 210 ------- 0 2.0 3.1 109 119
- 0.418918 1 3 cbr 210 ------- 0 2.0 3.1 109 119
+ 0.42 2 1 cbr 210 ------- 0 2.0 3.1 112 122
- 0.42 2 1 cbr 210 ------- 0 2.0 3.1 112 122
r 0.421586 1 3 cbr 210 ------- 0 2.0 3.1 107 117
r 0.422668 2 1 cbr 210 ------- 0 2.0 3.1 110 120
+ 0.422668 1 3 cbr 210 ------- 0 2.0 3.1 110 120
- 0.422668 1 3 cbr 210 ------- 0 2.0 3.1 110 120
+ 0.42375 2 1 cbr 210 ------- 0 2.0 3.1 113 123
- 0.42375 2 1 cbr 210 ------- 0 2.0 3.1 113 123
r 0.425336 1 3 cbr 210 ------- 0 2.0 3.1 108 118
r 0.426418 2 1 cbr 210 ------- 0 2.0 3.1 111 121
+ 0.426418 1 3 cbr 210 ------- 0 2.0 3.1 111 121
- 0.426418 1 3 cbr 210 ------- 0 2.0 3.1 111 121
+ 0.4275 2 1 cbr 210 ------- 0 2.0 3.1 114 124
- 0.4275 2 1 cbr 210 ------- 0 2.0 3.1 114 124
r 0.429086 1 3 cbr 210 ------- 0 2.0 3.1 109 119
r 0.430168 2 1 cbr 210 ------- 0 2.0 3.1 112 122
+ 0.430168 1 3 cbr 210 ------- 0 2.0 3.1 112 122
- 0.430168 1 3 cbr 210 ------- 0 2.0 3.1 112 122
+ 0.43125 2 1 cbr 210 ------- 0 2.0 3.1 115 125
- 0.43125 2 1 cbr 210 ------- 0 2.0 3.1 115 125
r 0.432836 1 3 cbr 210 ------- 0 2.0 3.1 110 120
r 0.433918 2 1 cbr 210 ------- 0 2.0 3.1 113 123
+ 0.433918 1 3 cbr 210 ------- 0 2.0 3.1 113 123
- 0.433918 1 3 cbr 210 ------- 0 2.0 3.1 113 123
+ 0.435 2 1 cbr 210 ------- 0 2.0 3.1 116 126
- 0.435 2 1 cbr 210 ------- 0 2.0 3.1 116 126
r 0.436586 1 3 cbr 210 ------- 0 2.0 3.1 111 121
r 0.437668 2 1 cbr 210 ------- 0 2.0 3.1 114 124
+ 0.437668 1 3 cbr 210 ------- 0 2.0 3.1 114 124
- 0.437668 1 3 cbr 210 ------- 0 2.0 3.1 114 124
+ 0.43875 2 1 cbr 210 ------- 0 2.0 3.1 117 127
- 0.43875 2 1 cbr 210 ------- 0 2.0 3.1 117 127
r 0.440336 1 3 cbr 210 ------- 0 2.0 3.1 112 122
r 0.441418 2 1 cbr 210 ------- 0 2.0 3.1 115 125
+ 0.441418 1 3 cbr 210 ------- 0 2.0 3.1 115 125
- 0.441418 1 3 cbr 210 ------- 0 2.0 3.1 115 125
+ 0.4425 2 1 cbr 210 ------- 0 2.0 3.1 118 128
- 0.4425 2 1 cbr 210 ------- 0 2.0 3.1 118 128
r 0.444086 1 3 cbr 210 ------- 0 2.0 3.1 113 123
r 0.445168 2 1 cbr 210 ------- 0 2.0 3.1 116 126
+ 0.445168 1 3 cbr 210 ------- 0 2.0 3.1 116 126
- 0.445168 1 3 cbr 210 ------- 0 2.0 3.1 116 126
+ 0.44625 2 1 cbr 210 ------- 0 2.0 3.1 119 129
- 0.44625 2 1 cbr 210 ------- 0 2.0 3.1 119 129
r 0.447836 1 3 cbr 210 ------- 0 2.0 3.1 114 124
r 0.448918 2 1 cbr 210 ------- 0 2.0 3.1 117 127
+ 0.448918 1 3 cbr 210 ------- 0 2.0 3.1 117 127
- 0.448918 1 3 cbr 210 ------- 0 2.0 3.1 117 127
+ 0.45 2 1 cbr 210 ------- 0 2.0 3.1 120 130
- 0.45 2 1 cbr 210 ------- 0 2.0 3.1 120 130
r 0.451586 1 3 cbr 210 ------- 0 2.0 3.1 115 125
r 0.452668 2 1 cbr 210 ------- 0 2.0 3.1 118 128
+ 0.452668 1 3 cbr 210 ------- 0 2.0 3.1 118 128
- 0.452668 1 3 cbr 210 ------- 0 2.0 3.1 118 128
+ 0.45375 2 1 cbr 210 ------- 0 2.0 3.1 121 131
- 0.45375 2 1 cbr 210 ------- 0 2.0 3.1 121 131
r 0.455336 1 3 cbr 210 ------- 0 2.0 3.1 116 126
r 0.456418 2 1 cbr 210 ------- 0 2.0 3.1 119 129
+ 0.456418 1 3 cbr 210 ------- 0 2.0 3.1 119 129
- 0.456418 1 3 cbr 210 ------- 0 2.0 3.1 119 129
+ 0.4575 2 1 cbr 210 ------- 0 2.0 3.1 122 132
- 0.4575 2 1 cbr 210 ------- 0 2.0 3.1 122 132
r 0.459086 1 3 cbr 210 ------- 0 2.0 3.1 117 127
r 0.460168 2 1 cbr 210 ------- 0 2.0 3.1 120 130
+ 0.460168 1 3 cbr 210 ------- 0 2.0 3.1 120 130
- 0.460168 1 3 cbr 210 ------- 0 2.0 3.1 120 130
+ 0.46125 2 1 cbr 210 ------- 0 2.0 3.1 123 133
- 0.46125 2 1 cbr 210 ------- 0 2.0 3.1 123 133
r 0.462836 1 3 cbr 210 ------- 0 2.0 3.1 118 128
r 0.463918 2 1 cbr 210 ------- 0 2.0 3.1 121 131
+ 0.463918 1 3 cbr 210 ------- 0 2.0 3.1 121 131
- 0.463918 1 3 cbr 210 ------- 0 2.0 3.1 121 131
+ 0.465 2 1 cbr 210 ------- 0 2.0 3.1 124 134
- 0.465 2 1 cbr 210 ------- 0 2.0 3.1 124 134
r 0.466586 1 3 cbr 210 ------- 0 2.0 3.1 119 129
r 0.467668 2 1 cbr 210 ------- 0 2.0 3.1 122 132
+ 0.467668 1 3 cbr 210 ------- 0 2.0 3.1 122 132
- 0.467668 1 3 cbr 210 ------- 0 2.0 3.1 122 132
+ 0.46875 2 1 cbr 210 ------- 0 2.0 3.1 125 135
- 0.46875 2 1 cbr 210 ------- 0 2.0 3.1 125 135
r 0.470336 1 3 cbr 210 ------- 0 2.0 3.1 120 130
r 0.471418 2 1 cbr 210 ------- 0 2.0 3.1 123 133
+ 0.471418 1 3 cbr 210 ------- 0 2.0 3.1 123 133
- 0.471418 1 3 cbr 210 ------- 0 2.0 3.1 123 133
+ 0.4725 2 1 cbr 210 ------- 0 2.0 3.1 126 136
- 0.4725 2 1 cbr 210 ------- 0 2.0 3.1 126 136
r 0.474086 1 3 cbr 210 ------- 0 2.0 3.1 121 131
r 0.475168 2 1 cbr 210 ------- 0 2.0 3.1 124 134
+ 0.475168 1 3 cbr 210 ------- 0 2.0 3.1 124 134
- 0.475168 1 3 cbr 210 ------- 0 2.0 3.1 124 134
+ 0.47625 2 1 cbr 210 ------- 0 2.0 3.1 127 137
- 0.47625 2 1 cbr 210 ------- 0 2.0 3.1 127 137
r 0.477836 1 3 cbr 210 ------- 0 2.0 3.1 122 132
r 0.478918 2 1 cbr 210 ------- 0 2.0 3.1 125 135
+ 0.478918 1 3 cbr 210 ------- 0 2.0 3.1 125 135
- 0.478918 1 3 cbr 210 ------- 0 2.0 3.1 125 135
+ 0.48 2 1 cbr 210 ------- 0 2.0 3.1 128 138
- 0.48 2 1 cbr 210 ------- 0 2.0 3.1 128 138
r 0.481586 1 3 cbr 210 ------- 0 2.0 3.1 123 133
r 0.482668 2 1 cbr 210 ------- 0 2.0 3.1 126 136
+ 0.482668 1 3 cbr 210 ------- 0 2.0 3.1 126 136
- 0.482668 1 3 cbr 210 ------- 0 2.0 3.1 126 136
+ 0.48375 2 1 cbr 210 ------- 0 2.0 3.1 129 139
- 0.48375 2 1 cbr 210 ------- 0 2.0 3.1 129 139
r 0.485336 1 3 cbr 210 ------- 0 2.0 3.1 124 134
r 0.486418 2 1 cbr 210 ------- 0 2.0 3.1 127 137
+ 0.486418 1 3 cbr 210 ------- 0 2.0 3.1 127 137
- 0.486418 1 3 cbr 210 ------- 0 2.0 3.1 127 137
+ 0.4875 2 1 cbr 210 ------- 0 2.0 3.1 130 140
- 0.4875 2 1 cbr 210 ------- 0 2.0 3.1 130 140
r 0.489086 1 3 cbr 210 ------- 0 2.0 3.1 125 135
r 0.490168 2 1 cbr 210 ------- 0 2.0 3.1 128 138
+ 0.490168 1 3 cbr 210 ------- 0 2.0 3.1 128 138
- 0.490168 1 3 cbr 210 ------- 0 2.0 3.1 128 138
+ 0.49125 2 1 cbr 210 ------- 0 2.0 3.1 131 141
- 0.49125 2 1 cbr 210 ------- 0 2.0 3.1 131 141
r 0.492836 1 3 cbr 210 ------- 0 2.0 3.1 126 136
r 0.493918 2 1 cbr 210 ------- 0 2.0 3.1 129 139
+ 0.493918 1 3 cbr 210 ------- 0 2.0 3.1 129 139
- 0.493918 1 3 cbr 210 ------- 0 2.0 3.1 129 139
+ 0.495 2 1 cbr 210 ------- 0 2.0 3.1 132 142
- 0.495 2 1 cbr 210 ------- 0 2.0 3.1 132 142
r 0.496586 1 3 cbr 210 ------- 0 2.0 3.1 127 137
r 0.497668 2 1 cbr 210 ------- 0 2.0 3.1 130 140
+ 0.497668 1 3 cbr 210 ------- 0 2.0 3.1 130 140
- 0.497668 1 3 cbr 210 ------- 0 2.0 3.1 130 140
+ 0.49875 2 1 cbr 210 ------- 0 2.0 3.1 133 143
- 0.49875 2 1 cbr 210 ------- 0 2.0 3.1 133 143
r 0.500336 1 3 cbr 210 ------- 0 2.0 3.1 128 138
r 0.501418 2 1 cbr 210 ------- 0 2.0 3.1 131 141
+ 0.501418 1 3 cbr 210 ------- 0 2.0 3.1 131 141
- 0.501418 1 3 cbr 210 ------- 0 2.0 3.1 131 141
+ 0.5025 2 1 cbr 210 ------- 0 2.0 3.1 134 144
- 0.5025 2 1 cbr 210 ------- 0 2.0 3.1 134 144
r 0.504086 1 3 cbr 210 ------- 0 2.0 3.1 129 139
r 0.505168 2 1 cbr 210 ------- 0 2.0 3.1 132 142
+ 0.505168 1 3 cbr 210 ------- 0 2.0 3.1 132 142
- 0.505168 1 3 cbr 210 ------- 0 2.0 3.1 132 142
+ 0.50625 2 1 cbr 210 ------- 0 2.0 3.1 135 145
- 0.50625 2 1 cbr 210 ------- 0 2.0 3.1 135 145
r 0.507836 1 3 cbr 210 ------- 0 2.0 3.1 130 140
r 0.508918 2 1 cbr 210 ------- 0 2.0 3.1 133 143
+ 0.508918 1 3 cbr 210 ------- 0 2.0 3.1 133 143
- 0.508918 1 3 cbr 210 ------- 0 2.0 3.1 133 143
+ 0.51 2 1 cbr 210 ------- 0 2.0 3.1 136 146
- 0.51 2 1 cbr 210 ------- 0 2.0 3.1 136 146
r 0.511586 1 3 cbr 210 ------- 0 2.0 3.1 131 141
r 0.512668 2 1 cbr 210 ------- 0 2.0 3.1 134 144
+ 0.512668 1 3 cbr 210 ------- 0 2.0 3.1 134 144
- 0.512668 1 3 cbr 210 ------- 0 2.0 3.1 134 144
+ 0.51375 2 1 cbr 210 ------- 0 2.0 3.1 137 147
- 0.51375 2 1 cbr 210 ------- 0 2.0 3.1 137 147
r 0.515336 1 3 cbr 210 ------- 0 2.0 3.1 132 142
r 0.516418 2 1 cbr 210 ------- 0 2.0 3.1 135 145
+ 0.516418 1 3 cbr 210 ------- 0 2.0 3.1 135 145
- 0.516418 1 3 cbr 210 ------- 0 2.0 3.1 135 145
+ 0.5175 2 1 cbr 210 ------- 0 2.0 3.1 138 148
- 0.5175 2 1 cbr 210 ------- 0 2.0 3.1 138 148
r 0.519086 1 3 cbr 210 ------- 0 2.0 3.1 133 143
r 0.520168 2 1 cbr 210 ------- 0 2.0 3.1 136 146
+ 0.520168 1 3 cbr 210 ------- 0 2.0 3.1 136 146
- 0.520168 1 3 cbr 210 ------- 0 2.0 3.1 136 146
+ 0.52125 2 1 cbr 210 ------- 0 2.0 3.1 139 149
- 0.52125 2 1 cbr 210 ------- 0 2.0 3.1 139 149
r 0.522836 1 3 cbr 210 ------- 0 2.0 3.1 134 144
r 0.523918 2 1 cbr 210 ------- 0 2.0 3.1 137 147
+ 0.523918 1 3 cbr 210 ------- 0 2.0 3.1 137 147
- 0.523918 1 3 cbr 210 ------- 0 2.0 3.1 137 147
+ 0.525 2 1 cbr 210 ------- 0 2.0 3.1 140 150
- 0.525 2 1 cbr 210 ------- 0 2.0 3.1 140 150
r 0.526586 1 3 cbr 210 ------- 0 2.0 3.1 135 145
r 0.527668 2 1 cbr 210 ------- 0 2.0 3.1 138 148
+ 0.527668 1 3 cbr 210 ------- 0 2.0 3.1 138 148
- 0.527668 1 3 cbr 210 ------- 0 2.0 3.1 138 148
+ 0.52875 2 1 cbr 210 ------- 0 2.0 3.1 141 151
- 0.52875 2 1 cbr 210 ------- 0 2.0 3.1 141 151
r 0.530336 1 3 cbr 210 ------- 0 2.0 3.1 136 146
r 0.531418 2 1 cbr 210 ------- 0 2.0 3.1 139 149
+ 0.531418 1 3 cbr 210 ------- 0 2.0 3.1 139 149
- 0.531418 1 3 cbr 210 ------- 0 2.0 3.1 139 149
+ 0.5325 2 1 cbr 210 ------- 0 2.0 3.1 142 152
- 0.5325 2 1 cbr 210 ------- 0 2.0 3.1 142 152
r 0.534086 1 3 cbr 210 ------- 0 2.0 3.1 137 147
r 0.535168 2 1 cbr 210 ------- 0 2.0 3.1 140 150
+ 0.535168 1 3 cbr 210 ------- 0 2.0 3.1 140 150
- 0.535168 1 3 cbr 210 ------- 0 2.0 3.1 140 150
+ 0.53625 2 1 cbr 210 ------- 0 2.0 3.1 143 153
- 0.53625 2 1 cbr 210 ------- 0 2.0 3.1 143 153
r 0.537836 1 3 cbr 210 ------- 0 2.0 3.1 138 148
r 0.538918 2 1 cbr 210 ------- 0 2.0 3.1 141 151
+ 0.538918 1 3 cbr 210 ------- 0 2.0 3.1 141 151
- 0.538918 1 3 cbr 210 ------- 0 2.0 3.1 141 151
+ 0.54 2 1 cbr 210 ------- 0 2.0 3.1 144 154
- 0.54 2 1 cbr 210 ------- 0 2.0 3.1 144 154
r 0.541586 1 3 cbr 210 ------- 0 2.0 3.1 139 149
r 0.542668 2 1 cbr 210 ------- 0 2.0 3.1 142 152
+ 0.542668 1 3 cbr 210 ------- 0 2.0 3.1 142 152
- 0.542668 1 3 cbr 210 ------- 0 2.0 3.1 142 152
+ 0.54375 2 1 cbr 210 ------- 0 2.0 3.1 145 155
- 0.54375 2 1 cbr 210 ------- 0 2.0 3.1 145 155
r 0.545336 1 3 cbr 210 ------- 0 2.0 3.1 140 150
r 0.546418 2 1 cbr 210 ------- 0 2.0 3.1 143 153
+ 0.546418 1 3 cbr 210 ------- 0 2.0 3.1 143 153
- 0.546418 1 3 cbr 210 ------- 0 2.0 3.1 143 153
+ 0.5475 2 1 cbr 210 ------- 0 2.0 3.1 146 156
- 0.5475 2 1 cbr 210 ------- 0 2.0 3.1 146 156
r 0.549086 1 3 cbr 210 ------- 0 2.0 3.1 141 151
r 0.550168 2 1 cbr 210 ------- 0 2.0 3.1 144 154
+ 0.550168 1 3 cbr 210 ------- 0 2.0 3.1 144 154
- 0.550168 1 3 cbr 210 ------- 0 2.0 3.1 144 154
+ 0.55125 2 1 cbr 210 ------- 0 2.0 3.1 147 157
- 0.55125 2 1 cbr 210 ------- 0 2.0 3.1 147 157
r 0.552836 1 3 cbr 210 ------- 0 2.0 3.1 142 152
r 0.553918 2 1 cbr 210 ------- 0 2.0 3.1 145 155
+ 0.553918 1 3 cbr 210 ------- 0 2.0 3.1 145 155
- 0.553918 1 3 cbr 210 ------- 0 2.0 3.1 145 155
+ 0.555 2 1 cbr 210 ------- 0 2.0 3.1 148 158
- 0.555 2 1 cbr 210 ------- 0 2.0 3.1 148 158
r 0.556586 1 3 cbr 210 ------- 0 2.0 3.1 143 153
r 0.557668 2 1 cbr 210 ------- 0 2.0 3.1 146 156
+ 0.557668 1 3 cbr 210 ------- 0 2.0 3.1 146 156
- 0.557668 1 3 cbr 210 ------- 0 2.0 3.1 146 156
+ 0.55875 2 1 cbr 210 ------- 0 2.0 3.1 149 159
- 0.55875 2 1 cbr 210 ------- 0 2.0 3.1 149 159
r 0.560336 1 3 cbr 210 ------- 0 2.0 3.1 144 154
r 0.561418 2 1 cbr 210 ------- 0 2.0 3.1 147 157
+ 0.561418 1 3 cbr 210 ------- 0 2.0 3.1 147 157
- 0.561418 1 3 cbr 210 ------- 0 2.0 3.1 147 157
+ 0.5625 2 1 cbr 210 ------- 0 2.0 3.1 150 160
- 0.5625 2 1 cbr 210 ------- 0 2.0 3.1 150 160
r 0.564086 1 3 cbr 210 ------- 0 2.0 3.1 145 155
r 0.565168 2 1 cbr 210 ------- 0 2.0 3.1 148 158
+ 0.565168 1 3 cbr 210 ------- 0 2.0 3.1 148 158
- 0.565168 1 3 cbr 210 ------- 0 2.0 3.1 148 158
+ 0.56625 2 1 cbr 210 ------- 0 2.0 3.1 151 161
- 0.56625 2 1 cbr 210 ------- 0 2.0 3.1 151 161
r 0.567836 1 3 cbr 210 ------- 0 2.0 3.1 146 156
r 0.568918 2 1 cbr 210 ------- 0 2.0 3.1 149 159
+ 0.568918 1 3 cbr 210 ------- 0 2.0 3.1 149 159
- 0.568918 1 3 cbr 210 ------- 0 2.0 3.1 149 159
+ 0.57 2 1 cbr 210 ------- 0 2.0 3.1 152 162
- 0.57 2 1 cbr 210 ------- 0 2.0 3.1 152 162
r 0.571586 1 3 cbr 210 ------- 0 2.0 3.1 147 157
r 0.572668 2 1 cbr 210 ------- 0 2.0 3.1 150 160
+ 0.572668 1 3 cbr 210 ------- 0 2.0 3.1 150 160
- 0.572668 1 3 cbr 210 ------- 0 2.0 3.1 150 160
+ 0.57375 2 1 cbr 210 ------- 0 2.0 3.1 153 163
- 0.57375 2 1 cbr 210 ------- 0 2.0 3.1 153 163
r 0.575336 1 3 cbr 210 ------- 0 2.0 3.1 148 158
r 0.576418 2 1 cbr 210 ------- 0 2.0 3.1 151 161
+ 0.576418 1 3 cbr 210 ------- 0 2.0 3.1 151 161
- 0.576418 1 3 cbr 210 ------- 0 2.0 3.1 151 161
+ 0.5775 2 1 cbr 210 ------- 0 2.0 3.1 154 164
- 0.5775 2 1 cbr 210 ------- 0 2.0 3.1 154 164
r 0.579086 1 3 cbr 210 ------- 0 2.0 3.1 149 159
r 0.580168 2 1 cbr 210 ------- 0 2.0 3.1 152 162
+ 0.580168 1 3 cbr 210 ------- 0 2.0 3.1 152 162
- 0.580168 1 3 cbr 210 ------- 0 2.0 3.1 152 162
+ 0.58125 2 1 cbr 210 ------- 0 2.0 3.1 155 165
- 0.58125 2 1 cbr 210 ------- 0 2.0 3.1 155 165
r 0.582836 1 3 cbr 210 ------- 0 2.0 3.1 150 160
r 0.583918 2 1 cbr 210 ------- 0 2.0 3.1 153 163
+ 0.583918 1 3 cbr 210 ------- 0 2.0 3.1 153 163
- 0.583918 1 3 cbr 210 ------- 0 2.0 3.1 153 163
+ 0.585 2 1 cbr 210 ------- 0 2.0 3.1 156 166
- 0.585 2 1 cbr 210 ------- 0 2.0 3.1 156 166
r 0.586586 1 3 cbr 210 ------- 0 2.0 3.1 151 161
r 0.587668 2 1 cbr 210 ------- 0 2.0 3.1 154 164
+ 0.587668 1 3 cbr 210 ------- 0 2.0 3.1 154 164
- 0.587668 1 3 cbr 210 ------- 0 2.0 3.1 154 164
+ 0.58875 2 1 cbr 210 ------- 0 2.0 3.1 157 167
- 0.58875 2 1 cbr 210 ------- 0 2.0 3.1 157 167
r 0.590336 1 3 cbr 210 ------- 0 2.0 3.1 152 162
r 0.591418 2 1 cbr 210 ------- 0 2.0 3.1 155 165
+ 0.591418 1 3 cbr 210 ------- 0 2.0 3.1 155 165
- 0.591418 1 3 cbr 210 ------- 0 2.0 3.1 155 165
+ 0.5925 2 1 cbr 210 ------- 0 2.0 3.1 158 168
- 0.5925 2 1 cbr 210 ------- 0 2.0 3.1 158 168
r 0.594086 1 3 cbr 210 ------- 0 2.0 3.1 153 163
r 0.595168 2 1 cbr 210 ------- 0 2.0 3.1 156 166
+ 0.595168 1 3 cbr 210 ------- 0 2.0 3.1 156 166
- 0.595168 1 3 cbr 210 ------- 0 2.0 3.1 156 166
+ 0.59625 2 1 cbr 210 ------- 0 2.0 3.1 159 169
- 0.59625 2 1 cbr 210 ------- 0 2.0 3.1 159 169
r 0.597836 1 3 cbr 210 ------- 0 2.0 3.1 154 164
r 0.598918 2 1 cbr 210 ------- 0 2.0 3.1 157 167
+ 0.598918 1 3 cbr 210 ------- 0 2.0 3.1 157 167
- 0.598918 1 3 cbr 210 ------- 0 2.0 3.1 157 167
+ 0.6 2 1 cbr 210 ------- 0 2.0 3.1 160 170
- 0.6 2 1 cbr 210 ------- 0 2.0 3.1 160 170
r 0.601586 1 3 cbr 210 ------- 0 2.0 3.1 155 165
r 0.602668 2 1 cbr 210 ------- 0 2.0 3.1 158 168
+ 0.602668 1 3 cbr 210 ------- 0 2.0 3.1 158 168
- 0.602668 1 3 cbr 210 ------- 0 2.0 3.1 158 168
+ 0.60375 2 1 cbr 210 ------- 0 2.0 3.1 161 171
- 0.60375 2 1 cbr 210 ------- 0 2.0 3.1 161 171
r 0.605336 1 3 cbr 210 ------- 0 2.0 3.1 156 166
r 0.606418 2 1 cbr 210 ------- 0 2.0 3.1 159 169
+ 0.606418 1 3 cbr 210 ------- 0 2.0 3.1 159 169
- 0.606418 1 3 cbr 210 ------- 0 2.0 3.1 159 169
+ 0.6075 2 1 cbr 210 ------- 0 2.0 3.1 162 172
- 0.6075 2 1 cbr 210 ------- 0 2.0 3.1 162 172
r 0.609086 1 3 cbr 210 ------- 0 2.0 3.1 157 167
r 0.610168 2 1 cbr 210 ------- 0 2.0 3.1 160 170
+ 0.610168 1 3 cbr 210 ------- 0 2.0 3.1 160 170
- 0.610168 1 3 cbr 210 ------- 0 2.0 3.1 160 170
+ 0.61125 2 1 cbr 210 ------- 0 2.0 3.1 163 173
- 0.61125 2 1 cbr 210 ------- 0 2.0 3.1 163 173
r 0.612836 1 3 cbr 210 ------- 0 2.0 3.1 158 168
r 0.613918 2 1 cbr 210 ------- 0 2.0 3.1 161 171
+ 0.613918 1 3 cbr 210 ------- 0 2.0 3.1 161 171
- 0.613918 1 3 cbr 210 ------- 0 2.0 3.1 161 171
+ 0.615 2 1 cbr 210 ------- 0 2.0 3.1 164 174
- 0.615 2 1 cbr 210 ------- 0 2.0 3.1 164 174
r 0.616586 1 3 cbr 210 ------- 0 2.0 3.1 159 169
r 0.617668 2 1 cbr 210 ------- 0 2.0 3.1 162 172
+ 0.617668 1 3 cbr 210 ------- 0 2.0 3.1 162 172
- 0.617668 1 3 cbr 210 ------- 0 2.0 3.1 162 172
+ 0.61875 2 1 cbr 210 ------- 0 2.0 3.1 165 175
- 0.61875 2 1 cbr 210 ------- 0 2.0 3.1 165 175
r 0.620336 1 3 cbr 210 ------- 0 2.0 3.1 160 170
r 0.621418 2 1 cbr 210 ------- 0 2.0 3.1 163 173
+ 0.621418 1 3 cbr 210 ------- 0 2.0 3.1 163 173
- 0.621418 1 3 cbr 210 ------- 0 2.0 3.1 163 173
+ 0.6225 2 1 cbr 210 ------- 0 2.0 3.1 166 176
- 0.6225 2 1 cbr 210 ------- 0 2.0 3.1 166 176
r 0.624086 1 3 cbr 210 ------- 0 2.0 3.1 161 171
r 0.625168 2 1 cbr 210 ------- 0 2.0 3.1 164 174
+ 0.625168 1 3 cbr 210 ------- 0 2.0 3.1 164 174
- 0.625168 1 3 cbr 210 ------- 0 2.0 3.1 164 174
+ 0.62625 2 1 cbr 210 ------- 0 2.0 3.1 167 177
- 0.62625 2 1 cbr 210 ------- 0 2.0 3.1 167 177
r 0.627836 1 3 cbr 210 ------- 0 2.0 3.1 162 172
r 0.628918 2 1 cbr 210 ------- 0 2.0 3.1 165 175
+ 0.628918 1 3 cbr 210 ------- 0 2.0 3.1 165 175
- 0.628918 1 3 cbr 210 ------- 0 2.0 3.1 165 175
+ 0.63 2 1 cbr 210 ------- 0 2.0 3.1 168 178
- 0.63 2 1 cbr 210 ------- 0 2.0 3.1 168 178
r 0.631586 1 3 cbr 210 ------- 0 2.0 3.1 163 173
r 0.632668 2 1 cbr 210 ------- 0 2.0 3.1 166 176
+ 0.632668 1 3 cbr 210 ------- 0 2.0 3.1 166 176
- 0.632668 1 3 cbr 210 ------- 0 2.0 3.1 166 176
+ 0.63375 2 1 cbr 210 ------- 0 2.0 3.1 169 179
- 0.63375 2 1 cbr 210 ------- 0 2.0 3.1 169 179
r 0.635336 1 3 cbr 210 ------- 0 2.0 3.1 164 174
r 0.636418 2 1 cbr 210 ------- 0 2.0 3.1 167 177
+ 0.636418 1 3 cbr 210 ------- 0 2.0 3.1 167 177
- 0.636418 1 3 cbr 210 ------- 0 2.0 3.1 167 177
+ 0.6375 2 1 cbr 210 ------- 0 2.0 3.1 170 180
- 0.6375 2 1 cbr 210 ------- 0 2.0 3.1 170 180
r 0.639086 1 3 cbr 210 ------- 0 2.0 3.1 165 175
r 0.640168 2 1 cbr 210 ------- 0 2.0 3.1 168 178
+ 0.640168 1 3 cbr 210 ------- 0 2.0 3.1 168 178
- 0.640168 1 3 cbr 210 ------- 0 2.0 3.1 168 178
+ 0.64125 2 1 cbr 210 ------- 0 2.0 3.1 171 181
- 0.64125 2 1 cbr 210 ------- 0 2.0 3.1 171 181
r 0.642836 1 3 cbr 210 ------- 0 2.0 3.1 166 176
r 0.643918 2 1 cbr 210 ------- 0 2.0 3.1 169 179
+ 0.643918 1 3 cbr 210 ------- 0 2.0 3.1 169 179
- 0.643918 1 3 cbr 210 ------- 0 2.0 3.1 169 179
+ 0.645 2 1 cbr 210 ------- 0 2.0 3.1 172 182
- 0.645 2 1 cbr 210 ------- 0 2.0 3.1 172 182
r 0.646586 1 3 cbr 210 ------- 0 2.0 3.1 167 177
r 0.647668 2 1 cbr 210 ------- 0 2.0 3.1 170 180
+ 0.647668 1 3 cbr 210 ------- 0 2.0 3.1 170 180
- 0.647668 1 3 cbr 210 ------- 0 2.0 3.1 170 180
+ 0.64875 2 1 cbr 210 ------- 0 2.0 3.1 173 183
- 0.64875 2 1 cbr 210 ------- 0 2.0 3.1 173 183
r 0.650336 1 3 cbr 210 ------- 0 2.0 3.1 168 178
r 0.651418 2 1 cbr 210 ------- 0 2.0 3.1 171 181
+ 0.651418 1 3 cbr 210 ------- 0 2.0 3.1 171 181
- 0.651418 1 3 cbr 210 ------- 0 2.0 3.1 171 181
+ 0.6525 2 1 cbr 210 ------- 0 2.0 3.1 174 184
- 0.6525 2 1 cbr 210 ------- 0 2.0 3.1 174 184
r 0.654086 1 3 cbr 210 ------- 0 2.0 3.1 169 179
r 0.655168 2 1 cbr 210 ------- 0 2.0 3.1 172 182
+ 0.655168 1 3 cbr 210 ------- 0 2.0 3.1 172 182
- 0.655168 1 3 cbr 210 ------- 0 2.0 3.1 172 182
+ 0.65625 2 1 cbr 210 ------- 0 2.0 3.1 175 185
- 0.65625 2 1 cbr 210 ------- 0 2.0 3.1 175 185
r 0.657836 1 3 cbr 210 ------- 0 2.0 3.1 170 180
r 0.658918 2 1 cbr 210 ------- 0 2.0 3.1 173 183
+ 0.658918 1 3 cbr 210 ------- 0 2.0 3.1 173 183
- 0.658918 1 3 cbr 210 ------- 0 2.0 3.1 173 183
+ 0.66 2 1 cbr 210 ------- 0 2.0 3.1 176 186
- 0.66 2 1 cbr 210 ------- 0 2.0 3.1 176 186
r 0.661586 1 3 cbr 210 ------- 0 2.0 3.1 171 181
r 0.662668 2 1 cbr 210 ------- 0 2.0 3.1 174 184
+ 0.662668 1 3 cbr 210 ------- 0 2.0 3.1 174 184
- 0.662668 1 3 cbr 210 ------- 0 2.0 3.1 174 184
+ 0.66375 2 1 cbr 210 ------- 0 2.0 3.1 177 187
- 0.66375 2 1 cbr 210 ------- 0 2.0 3.1 177 187
r 0.665336 1 3 cbr 210 ------- 0 2.0 3.1 172 182
r 0.666418 2 1 cbr 210 ------- 0 2.0 3.1 175 185
+ 0.666418 1 3 cbr 210 ------- 0 2.0 3.1 175 185
- 0.666418 1 3 cbr 210 ------- 0 2.0 3.1 175 185
+ 0.6675 2 1 cbr 210 ------- 0 2.0 3.1 178 188